LAMMPS (3 Mar 2020)
OMP_NUM_THREADS environment is not set. Defaulting to 1 thread. (src/comm.cpp:94)
  using 1 OpenMP thread(s) per MPI task
# LAMMPS Input Script created with replicate_polymer_topology
# FF: /home/jramos/Programacion/GITHUB_REPO_DIR/replicate_polymer_topology/forcefields/loplsaa.xml

#======1.Initialization======
units                real
boundary             p p p
dimension            3
atom_style           full

#======2.Force Field terms======
pair_style     hybrid lj/cut/coul/long 10.0 10.0
bond_style     hybrid harmonic
angle_style    hybrid harmonic
dihedral_style hybrid multi/harmonic
#improper_style hybrid harmonic
special_bonds lj 0.0 0.0 0.5 coul 0.0 0.0 0.5

#======3.Data======
read_data ../01-MINIMIZE/restart.data.95.data
  triclinic box = (-18.55 -19.83 -18.55) to (31.701 30.421 31.701) with tilt (0 0 0)
  3 by 4 by 4 MPI processor grid
  reading atoms ...
  12320 atoms
  reading velocities ...
  12320 velocities
  scanning bonds ...
  4 = max bonds/atom
  scanning angles ...
  6 = max angles/atom
  scanning dihedrals ...
  9 = max dihedrals/atom
  reading bonds ...
  12280 bonds
  reading angles ...
  24480 angles
  reading dihedrals ...
  36360 dihedrals
  4 = max # of 1-2 neighbors
  6 = max # of 1-3 neighbors
  12 = max # of 1-4 neighbors
  16 = max # of special neighbors
  special bonds CPU = 0.0119917 secs
  read_data CPU = 0.155976 secs

#======4.Modify Pairs======
pair_modify mix geometric tail yes
kspace_style pppm 1e-6
kspace_modify gewald 0.1


timestep 2.0
#run_style respa 2 5 bond 1 angle 1 dihedral 1 improper 1 pair 2

#======5.Settings======
neigh_modify every 10 delay 20 check yes
thermo         10000
thermo_style custom step cpu ebond eangle edihed eimp epair evdwl ecoul elong etail pe temp press lx ly lz density
dump       1 all dcd   10000  dump.dcd
dump       2 all xyz   10000  dump_last.xyz
dump       3 all atom  10000  dump_last.atom
dump       4 all xtc   10000  dump.xtc
restart    500000 restart.data

#======6.Minimization simulation======
#run 0
#minimize 1.0e-8 1.0e-10 10000 10000

#======6.NVT simulation======
fix 1 all shake 0.0001 5 0 b 1 3
  0 = # of size 2 clusters
  4000 = # of size 3 clusters
  80 = # of size 4 clusters
  0 = # of frozen angles
  find clusters CPU = 0.0021412 secs
fix 2 all nvt temp 200 200 100.0 drag 0.1
fix 3 all temp/csvr 200 200 100 54324  # Equivalent to v-rescale Gromacs
run 500000
PPPM initialization ...
  using 12-bit tables for long-range coulomb (src/kspace.cpp:332)
  G vector (1/distance) = 0.1
  grid = 15 15 15
  stencil order = 5
  estimated absolute RMS force accuracy = 0.267081
  estimated relative force accuracy = 0.000804306
  using double precision FFTW3
  3d grid and FFT values/proc = 1000 90
Neighbor list info ...
  update every 10 steps, delay 20 steps, check yes
  max neighbors/atom: 2000, page size: 100000
  master list distance cutoff = 12
  ghost atom cutoff = 12
  binsize = 6, bins = 9 9 9
  1 neighbor lists, perpetual/occasional/extra = 1 0 0
  (1) pair lj/cut/coul/long, perpetual
      attributes: half, newton on
      pair build: half/bin/newton/tri
      stencil: half/bin/3d/newton/tri
      bin: standard
Per MPI rank memory allocation (min/avg/max) = 15.97 | 16.02 | 16.37 Mbytes
Step CPU E_bond E_angle E_dihed E_impro E_pair E_vdwl E_coul E_long E_tail PotEng Temp Press Lx Ly Lz Density 
       0            0    96.814561    820.02171    1076.2954            0   -3256.6254   -4188.0737    3491.9558   -2560.5075   -286.27104   -1263.4938            0   -2667.2227       50.251       50.251       50.251    0.7499669 
   10000    25.352825    917.50959    4480.5468     1394.091            0   -2818.9464   -3820.5617    3561.9218   -2560.3065   -286.27104    3973.2009    198.67834    -1233.155       50.251       50.251       50.251    0.7499669 
   20000    51.020944    933.01085    4535.0384    1250.3317            0   -2870.9407    -3888.929    3578.2498   -2560.2615   -286.27104    3847.4402    202.68166   -1764.9479       50.251       50.251       50.251    0.7499669 
   30000    77.045752    924.19926    4520.6538    1257.6711            0   -2918.6629   -3924.7389     3566.193    -2560.117   -286.27104    3783.8613    197.95559   -1363.6091       50.251       50.251       50.251    0.7499669 
   40000    103.15553    947.97749    4523.0704    1244.6838            0   -2943.1358     -3963.19    3580.2236   -2560.1693   -286.27104     3772.596    198.37457   -1886.9916       50.251       50.251       50.251    0.7499669 
   50000    129.38921    952.70543    4547.4779    1217.4396            0   -2924.8187   -3964.0047    3599.3477   -2560.1617   -286.27104    3792.8042    197.14543   -1452.7408       50.251       50.251       50.251    0.7499669 
   60000    155.95669    907.75171    4490.2069    1244.9762            0   -2942.7158   -3991.4736    3608.9427   -2560.1849   -286.27104    3700.2191    199.20242   -1234.0557       50.251       50.251       50.251    0.7499669 
   70000    182.77809    906.14353    4530.6671    1251.9263            0    -2980.914   -4007.2634    3586.3966   -2560.0472   -286.27104    3707.8229    201.83628   -1362.1271       50.251       50.251       50.251    0.7499669 
   80000    209.60215    927.06872    4613.2123    1226.7755            0   -2979.7784   -4023.4373     3603.724    -2560.065   -286.27104    3787.2781    198.67091   -1632.3689       50.251       50.251       50.251    0.7499669 
   90000      236.468    922.80299    4434.1976    1194.6167            0   -3002.8986   -4054.2359    3611.3794   -2560.0421   -286.27104    3548.7187    201.40991   -1585.8185       50.251       50.251       50.251    0.7499669 
  100000    263.59744    918.67571    4447.9873    1196.6494            0   -2968.4336   -3995.5271    3587.1366   -2560.0431   -286.27104    3594.8788    199.12361   -1691.0097       50.251       50.251       50.251    0.7499669 
  110000    290.67961    944.99354    4491.7691    1192.3294            0   -2967.2463    -4017.511    3610.3399   -2560.0752   -286.27104    3661.8457    200.89543   -1396.2496       50.251       50.251       50.251    0.7499669 
  120000    317.75945    900.65127    4488.3902    1218.1979            0   -2916.6765   -4001.1069    3644.4976   -2560.0672   -286.27104    3690.5628    200.64557   -1574.0193       50.251       50.251       50.251    0.7499669 
  130000    345.03207    894.16379    4486.3571    1138.5645            0   -3005.1885   -4046.8733    3601.7049   -2560.0201   -286.27104    3513.8969    200.16296   -1378.0345       50.251       50.251       50.251    0.7499669 
  140000    372.33248    908.96756    4463.9398     1150.111            0   -3010.0435   -4064.4315    3614.4501   -2560.0622   -286.27104    3512.9748    197.24867   -1696.9076       50.251       50.251       50.251    0.7499669 
  150000    399.88065    888.79841    4406.4119    1181.1578            0   -2937.9195   -4038.9649    3661.0403   -2559.9949   -286.27104    3538.4486    199.49461   -1523.7496       50.251       50.251       50.251    0.7499669 
  160000    427.29715    889.04216    4436.5789    1163.8751            0   -2939.0203   -4015.0957    3636.1246   -2560.0492   -286.27104    3550.4758    195.56752   -1097.6298       50.251       50.251       50.251    0.7499669 
  170000    454.53042    918.54129    4435.5899    1143.2331            0   -2983.1914   -4064.3318    3641.1147   -2559.9743   -286.27104    3514.1728     201.3063   -1739.4734       50.251       50.251       50.251    0.7499669 
  180000    481.71513    893.87089    4554.6413    1139.7782            0   -3007.3654   -4123.6595    3676.2528   -2559.9587   -286.27104     3580.925    201.00541   -1821.4731       50.251       50.251       50.251    0.7499669 
  190000    509.15806    935.30627     4405.546    1136.3013            0   -2979.3002   -4087.8233    3668.3231      -2559.8   -286.27104    3497.8533     196.1655   -1209.8553       50.251       50.251       50.251    0.7499669 
  200000    536.49221    937.23715    4441.7413    1170.7178            0   -3003.2757   -4118.6944    3675.2053   -2559.7866   -286.27104    3546.4205     197.3664    -1440.171       50.251       50.251       50.251    0.7499669 
  210000    563.76147    905.48176    4503.7402    1167.2388            0   -3033.5361    -4124.776    3651.1248   -2559.8849   -286.27104    3542.9247    198.56504   -1473.7736       50.251       50.251       50.251    0.7499669 
  220000    590.83655    896.98916    4533.4218    1171.0516            0   -3063.3914   -4117.5607    3614.0269   -2559.8576   -286.27104    3538.0711    199.83293    -1112.473       50.251       50.251       50.251    0.7499669 
  230000     618.0196    959.59387    4517.1876    1146.3705            0   -3042.5398   -4150.2344    3667.4904   -2559.7959   -286.27104    3580.6121    200.86527   -1851.4196       50.251       50.251       50.251    0.7499669 
  240000    645.34176    928.82241    4446.7657    1146.0405            0   -2989.4845    -4090.861    3661.0707   -2559.6943   -286.27104    3532.1441    198.34775    -1065.677       50.251       50.251       50.251    0.7499669 
  250000    672.51638    926.38414    4460.6339    1143.5903            0   -3066.0932   -4157.4671    3651.1091   -2559.7352   -286.27104    3464.5152    198.46314   -1132.1814       50.251       50.251       50.251    0.7499669 
  260000    699.73199    891.52881    4500.0415    1150.0205            0   -3006.7588   -4166.9783    3719.7584   -2559.5389   -286.27104    3534.8321    197.84234   -1084.6013       50.251       50.251       50.251    0.7499669 
  270000    727.07761    921.14294    4532.7277     1139.371            0    -3030.463   -4152.2015    3681.4461   -2559.7077   -286.27104    3562.7787    198.85712   -1205.1103       50.251       50.251       50.251    0.7499669 
  280000    754.50439    899.98888    4503.5896    1124.5234            0   -3034.6865    -4164.937     3689.887   -2559.6365   -286.27104    3493.4154    197.78563   -1396.0525       50.251       50.251       50.251    0.7499669 
  290000    782.01631    927.66718    4543.9294    1106.3018            0   -3008.5747   -4151.8535    3702.9798    -2559.701   -286.27104    3569.3237    201.26943   -1040.0194       50.251       50.251       50.251    0.7499669 
  300000    809.50277    883.24192    4527.5619    1120.7041            0    -3087.494   -4156.8802    3629.1688   -2559.7827   -286.27104    3444.0139    198.01819   -1194.5615       50.251       50.251       50.251    0.7499669 
  310000    837.18372    905.98738    4516.1731    1115.6642            0   -3059.7692   -4173.6923    3673.5715   -2559.6484   -286.27104    3478.0555    199.15464   -1058.4604       50.251       50.251       50.251    0.7499669 
  320000    864.74391    896.11147    4526.0803    1100.3118            0   -3111.9134   -4219.0492    3666.8677   -2559.7319   -286.27104    3410.5902    201.31936   -1533.1711       50.251       50.251       50.251    0.7499669 
  330000    892.33502    916.72069    4473.5812    1128.1644            0   -3029.1318   -4161.2137     3691.789   -2559.7072   -286.27104    3489.3344    202.86794    -1451.007       50.251       50.251       50.251    0.7499669 
  340000    920.10001    895.04101     4441.181    1123.9957            0   -2985.5053   -4155.6046    3729.8464   -2559.7471   -286.27104    3474.7123     200.0193   -1626.0212       50.251       50.251       50.251    0.7499669 
  350000    947.84548    897.80118    4445.3819    1147.8248            0   -3032.2721   -4160.8996    3688.2401   -2559.6126   -286.27104    3458.7358    201.80094   -962.50099       50.251       50.251       50.251    0.7499669 
  360000    975.62317     906.5108    4448.4164    1096.3429            0   -3091.2153   -4222.9861       3691.5   -2559.7293   -286.27104    3360.0548    201.43868   -1545.2735       50.251       50.251       50.251    0.7499669 
  370000    1003.3475    914.09447    4506.3743    1105.4483            0   -3055.5436   -4201.0158    3705.2473   -2559.7751   -286.27104    3470.3735    197.64507   -1257.3732       50.251       50.251       50.251    0.7499669 
  380000    1031.0484    889.90343    4444.0312    1113.4539            0   -3089.4076   -4209.6241    3679.8012   -2559.5846   -286.27104    3357.9809    197.94313    -1083.472       50.251       50.251       50.251    0.7499669 
  390000    1058.8275    871.61935    4509.4588    1104.7084            0   -3056.6229   -4168.1804    3671.2312   -2559.6738   -286.27104    3429.1637    200.07568   -860.81616       50.251       50.251       50.251    0.7499669 
  400000    1086.3254    891.13394    4473.8063    1095.2817            0   -3079.8534    -4220.904    3700.6901   -2559.6396   -286.27104    3380.3685    199.34294   -1082.6919       50.251       50.251       50.251    0.7499669 
  410000    1113.8545    907.49994    4503.9904    1151.2048            0   -3057.4616    -4191.234    3693.4158   -2559.6434   -286.27104    3505.2336    197.71145   -1586.6081       50.251       50.251       50.251    0.7499669 
  420000    1141.5438    909.91489    4398.9553    1127.7535            0   -3069.3969   -4196.3116    3686.5994   -2559.6847   -286.27104    3367.2268    197.24629   -1435.5741       50.251       50.251       50.251    0.7499669 
  430000    1169.4291     884.4718    4446.2512    1117.0261            0   -3036.3109   -4192.3223    3715.7367   -2559.7253   -286.27104    3411.4382    197.47834    -1391.045       50.251       50.251       50.251    0.7499669 
  440000     1197.111    882.62475    4419.0768    1127.4638            0   -3066.7981   -4195.4426    3688.3992   -2559.7547   -286.27104    3362.3673    200.63403   -1163.6668       50.251       50.251       50.251    0.7499669 
  450000    1227.8687    891.56369    4468.1826    1125.0096            0   -3089.5123   -4215.7391    3685.8659   -2559.6391   -286.27104    3395.2436    197.22766   -1318.4549       50.251       50.251       50.251    0.7499669 
  460000    1255.3068    858.65038      4479.52    1137.3063            0   -3040.1588   -4169.1676    3688.6706   -2559.6618   -286.27104    3435.3179     200.2112    -756.1538       50.251       50.251       50.251    0.7499669 
  470000    1282.9858    853.97833    4523.1105    1103.4916            0   -3104.0308   -4214.1257      3669.71    -2559.615   -286.27104    3376.5496    200.68409   -829.97533       50.251       50.251       50.251    0.7499669 
  480000    1310.8086    884.65053    4503.3162    1140.4215            0   -3080.9237   -4248.2232     3726.708   -2559.4085   -286.27104    3447.4645    200.56805   -1527.8459       50.251       50.251       50.251    0.7499669 
  490000    1338.5218    917.29157    4485.1602    1133.2339            0   -3075.5845   -4187.5638    3671.5837   -2559.6044   -286.27104    3460.1012    195.82129   -1184.0426       50.251       50.251       50.251    0.7499669 
  500000    1366.3191    924.39554    4504.4203    1120.1989            0   -3122.3189   -4258.7977    3696.0166   -2559.5377   -286.27104    3426.6958    200.96911   -1670.4743       50.251       50.251       50.251    0.7499669 
Loop time of 1366.32 on 48 procs for 500000 steps with 12320 atoms

Performance: 63.236 ns/day, 0.380 hours/ns, 365.947 timesteps/s
99.5% CPU use with 48 MPI tasks x 1 OpenMP threads

MPI task timing breakdown:
Section |  min time  |  avg time  |  max time  |%varavg| %total
---------------------------------------------------------------
Pair    | 333.77     | 638.58     | 770.5      | 363.8 | 46.74
Bond    | 29.325     | 47.421     | 52.926     |  74.2 |  3.47
Kspace  | 154.05     | 288.76     | 607.89     | 563.1 | 21.13
Neigh   | 84.378     | 84.554     | 84.802     |   1.3 |  6.19
Comm    | 179.17     | 185.91     | 191.53     |  19.6 | 13.61
Output  | 0.2621     | 0.2622     | 0.26369    |   0.0 |  0.02
Modify  | 116.18     | 117.63     | 119.65     |   9.3 |  8.61
Other   |            | 3.203      |            |       |  0.23

Nlocal:    256.667 ave 304 max 112 min
Histogram: 1 1 0 0 3 3 7 7 17 9
Nghost:    5024 ave 5259 max 4694 min
Histogram: 3 0 6 7 0 10 3 6 5 8
Neighs:    92366.5 ave 118520 max 24804 min
Histogram: 1 0 2 1 2 2 10 8 16 6

Total # of neighbors = 4433591
Ave neighs/atom = 359.869
Ave special neighs/atom = 11.8701
Neighbor list builds = 18632
Dangerous builds = 5894

#======6.NPT simulation======
# fix 1 all npt temp 450 450 100.0 iso 1.0 1.0 1000.0 drag 1.0
# fix 2 all temp/csvr 450 450 500 54324  # Equivalent to v-rescale Gromacs
# run 10000

Total wall time: 0:22:46
