12320
Atoms. Timestep: 5000000
1 10.9367 -12.9421 -8.8399
2 10.6148 -12.2785 -8.08279
2 12.0521 -13.2112 -8.70818
2 10.9778 -12.3821 -9.78307
3 10.091 -14.1925 -9.08758
4 9.9022 -14.6751 -8.18011
4 10.5135 -14.945 -9.85228
3 8.67498 -13.8334 -9.49451
4 8.67231 -13.2319 -10.3977
4 8.13562 -13.2629 -8.80185
3 7.82034 -15.1701 -9.5827
4 7.19623 -15.2142 -8.67547
4 8.61437 -15.8808 -9.54459
3 7.01675 -15.2836 -10.9089
4 7.0128 -16.1979 -11.5276
4 7.62069 -14.7129 -11.527
3 5.56065 -14.8258 -10.7861
4 5.2977 -14.1566 -11.6499
4 5.37278 -14.4065 -9.83441
3 4.54367 -15.9136 -11.0932
4 5.07159 -16.843 -10.8712
4 4.21322 -15.8511 -12.0714
3 3.29256 -15.7573 -10.2652
4 2.58937 -14.9265 -10.5096
4 3.49868 -15.5164 -9.24752
3 2.41672 -16.9747 -10.3027
4 2.85918 -17.8599 -9.86341
4 2.1199 -17.1841 -11.3392
3 1.13153 -16.8806 -9.46061
4 0.459436 -16.1515 -9.73373
4 1.31989 -16.6559 -8.50472
3 0.468836 -18.2292 -9.44531
4 0.222768 -18.4451 -10.3139
4 -0.488617 -18.2162 -8.96151
3 1.213 -19.4151 -8.93598
4 1.68392 -19.0075 -8.02684
4 1.88908 -19.7441 -9.69823
3 0.428221 30.5702 -8.73355
4 0.205556 30.194 -9.71131
4 -0.445701 30.8778 -8.08943
3 1.30378 29.5681 -8.04113
4 1.4164 29.9222 -6.96326
4 2.39753 29.5832 -8.30714
3 0.762739 28.1104 -8.00442
4 0.369896 27.666 -8.93193
4 -0.0585708 28.2365 -7.29514
3 1.75007 27.0766 -7.43359
4 1.18322 26.1379 -7.30472
4 1.98286 27.2465 -6.32692
3 3.02612 27.0111 -8.32614
4 3.87638 27.2426 -7.79447
4 2.98774 27.7442 -9.0366
3 3.22595 25.7504 -9.20064
4 3.67274 25.8311 -10.1747
4 2.28326 25.2842 -9.37523
3 4.2169 24.8401 -8.44607
4 3.86651 24.4492 -7.44861
4 5.1994 25.2042 -8.17465
3 4.33815 23.4704 -9.11634
4 5.18547 22.9247 -8.79284
4 4.46667 23.6454 -10.2247
3 3.24262 22.5049 -8.83434
4 3.27381 21.8008 -9.68465
4 2.22447 22.8649 -8.95847
3 3.43715 21.7794 -7.48456
4 3.63034 22.5126 -6.6848
4 4.36743 21.1796 -7.60172
3 2.28702 20.895 -7.05222
4 2.18423 20.0198 -7.69697
4 1.33808 21.4063 -7.11277
3 2.42939 19.9565 -5.78424
4 1.61693 19.2544 -5.82635
4 2.4329 20.5254 -4.84427
3 3.58936 19.2067 -5.63427
4 4.40199 19.8762 -5.61131
4 3.8686 18.7789 -6.55156
3 3.67858 18.1919 -4.46357
4 3.2235 17.2686 -4.66727
4 3.50041 18.5468 -3.47622
3 5.15547 17.5781 -4.4505
4 5.77297 18.486 -4.62912
4 5.17869 16.9999 -5.40798
3 5.42153 16.393 -3.46683
4 6.46726 16.3098 -3.40414
4 5.12376 15.4316 -3.71658
3 4.72061 16.5633 -2.04757
4 3.59148 16.641 -2.13394
4 5.01833 17.5086 -1.62211
3 5.2304 15.4694 -1.03068
4 6.24049 15.714 -0.882508
4 5.17078 14.4814 -1.57309
3 4.60955 15.3488 0.450595
4 5.13327 14.8473 1.26261
4 3.60469 14.9429 0.381834
3 4.34185 16.8081 0.992018
4 3.94888 17.3517 0.201317
4 5.06208 17.4425 1.51101
3 3.22083 16.7657 2.00562
4 3.52012 16.0843 2.82327
4 2.37787 16.3027 1.64974
3 2.78864 18.0133 2.77451
4 2.18181 18.5556 2.0722
4 3.60055 18.6766 3.23004
3 1.58088 17.7008 3.71088
4 1.89362 17.104 4.54532
4 0.924621 16.9058 3.19992
3 0.816302 18.9461 4.18017
4 0.260555 18.7755 5.08193
4 0.106925 19.296 3.42957
3 1.64037 20.1923 4.52964
4 1.97669 20.5378 3.5755
4 2.51909 19.9983 5.27789
3 0.749631 21.2473 5.21661
4 0.268754 20.749 6.06023
4 -0.0885751 21.3911 4.49867
3 1.53765 22.4304 5.66133
4 2.31589 22.8873 4.92159
4 2.28594 22.0902 6.33812
3 0.514549 23.3219 6.29694
4 0.00494154 22.796 7.10828
4 -0.232066 23.6167 5.55717
3 1.07935 24.4559 7.21248
4 0.440975 25.2586 7.0329
4 2.05232 24.7271 6.77211
3 1.30054 24.1894 8.67289
4 0.401389 23.6924 9.24196
4 1.50381 25.146 9.13765
3 2.51768 23.2389 8.86679
4 3.16285 23.4781 8.02998
4 2.36977 22.1627 8.80343
3 3.47185 23.6362 10.0517
4 3.61216 24.6892 10.0584
4 4.44558 23.1813 9.90255
3 2.92238 23.1957 11.4501
4 2.58096 22.2003 11.3126
4 1.98332 23.7652 11.5864
3 3.97389 23.1781 12.5782
4 3.36628 22.7844 13.4486
4 4.33452 24.2109 12.5928
3 5.29445 22.1848 12.3061
4 5.92871 22.0973 13.2594
4 5.9637 22.3706 11.4334
3 4.62789 20.7702 12.3161
4 3.89329 20.6598 11.5053
4 4.141 20.6286 13.2864
3 5.67437 19.5646 12.1062
4 6.58702 19.6465 12.7698
4 5.89963 19.711 11.054
3 5.25074 18.0243 12.0806
4 5.8155 17.3617 11.5114
4 4.27005 18.0813 11.6129
3 5.16273 17.4272 13.5591
4 4.6389 18.1296 14.2458
4 6.22725 17.3946 13.9674
3 4.58205 15.9376 13.4785
4 3.55576 15.9232 12.9496
4 4.41403 15.8065 14.5133
3 5.53293 14.8702 12.9867
4 5.14162 14.1465 13.6973
4 6.53106 15.0597 13.4569
3 5.37785 14.5548 11.5013
4 5.58559 15.1789 10.6468
4 4.41712 14.0341 11.354
3 6.38017 13.4157 11.0156
4 5.97894 12.3676 11.0258
4 7.08698 13.2437 11.7765
3 7.28562 13.614 9.7814
4 7.97344 14.4533 9.79284
4 6.70629 13.6793 8.95052
3 8.35796 12.4153 9.63973
4 8.19187 11.953 8.63102
4 8.21679 11.6701 10.5069
3 9.82039 12.8649 9.36493
4 10.2645 13.3142 10.3158
4 9.83187 13.643 8.65212
3 10.6877 11.6202 8.76127
4 11.7614 11.962 8.73557
4 10.5687 11.4586 7.62989
3 10.5138 10.209 9.48853
4 9.43503 9.87848 9.3313
4 10.763 10.3099 10.5717
3 11.576 9.11245 9.01533
4 11.5584 8.37669 9.71017
4 12.5402 9.58721 9.04752
3 11.3502 8.52085 7.61466
4 12.2629 7.95254 7.25647
4 11.1913 9.35428 6.92116
3 10.1488 7.61071 7.54719
4 9.29626 8.20947 7.78526
4 10.3282 6.86389 8.34115
3 9.90636 7.13854 6.1453
4 10.8538 6.61291 5.79978
4 9.73095 7.97403 5.48787
3 8.72982 6.11984 5.90557
4 8.41538 6.26167 4.85792
4 7.78941 6.39018 6.40758
3 9.06215 4.58682 5.99462
4 9.00901 4.40678 7.0965
4 10.0775 4.20751 5.71898
3 8.0174 3.87766 5.14908
4 7.95678 4.22669 4.05568
4 7.03717 4.19327 5.64674
3 8.21458 2.39428 5.23077
4 8.24312 2.20212 6.28908
4 9.1053 2.15714 4.68181
3 7.05722 1.66428 4.6657
4 7.2947 0.595261 4.81382
4 6.87325 1.74102 3.62047
3 5.79481 1.81184 5.57364
4 5.31671 2.87183 5.66243
4 6.1731 1.85287 6.53977
3 4.77168 0.691671 5.35418
4 4.0334 0.998298 5.99937
4 4.95799 -0.321531 5.72326
3 4.46264 0.623387 3.8552
4 5.12135 -0.14612 3.41039
4 4.7289 1.53249 3.40336
3 2.99599 0.2326 3.5699
4 2.92513 -0.770556 3.8274
4 2.92713 -0.0302604 2.48976
3 1.85253 1.27417 3.99438
4 1.70033 1.85729 3.13001
4 2.10091 1.97703 4.76463
3 0.49952 0.609465 4.44875
4 0.198526 -0.215477 3.79842
4 -0.270088 1.3797 4.37707
3 0.654362 -0.10848 5.75215
4 0.911599 0.522456 6.56288
4 1.44417 -0.823484 5.51501
3 -0.617238 -0.81832 6.3107
4 -0.859661 -1.47657 5.46062
4 -1.51371 -0.122202 6.52427
3 -0.403905 -1.40833 7.77752
4 -1.30487 -1.15404 8.34256
4 0.372143 -0.869033 8.36538
3 -0.501508 -2.93762 7.8997
4 -1.33237 -3.48365 7.31798
4 -0.674184 -3.23774 8.90299
3 0.872089 -3.63039 7.62751
4 1.05592 -4.54241 8.11877
4 1.83294 -3.06587 7.76379
3 0.981393 -4.15689 6.15792
4 0.575814 -3.34294 5.57766
4 0.224389 -4.92575 6.00422
3 2.25191 -4.35309 5.36406
4 2.97095 -3.58924 5.4976
4 1.89194 -4.33872 4.38019
3 2.81958 -5.72931 5.79247
4 2.27509 -6.64479 5.81467
4 3.0974 -5.72439 6.85355
3 4.15018 -5.9347 5.03927
4 4.85356 -5.10775 5.29595
4 3.95567 -5.83893 3.98852
3 4.86444 -7.36353 5.32131
4 4.12498 -8.09833 5.16069
4 5.23624 -7.23633 6.34066
3 6.09589 -7.56607 4.37518
4 6.93423 -6.80852 4.31515
4 5.80708 -7.51018 3.33264
3 6.66927 -9.00729 4.40135
4 5.94455 -9.66617 3.8877
4 6.73638 -9.23201 5.57302
3 8.13202 -9.18225 3.93306
4 8.36845 -10.2304 4.00618
4 8.86334 -8.65372 4.57198
3 8.5291 -8.68459 2.51271
4 8.49997 -7.64091 2.64698
4 7.72038 -8.77932 1.73976
3 9.78778 -9.26033 1.76877
4 9.59223 -10.2966 1.53637
4 10.6162 -9.15016 2.40006
3 10.009 -8.25647 0.649983
4 10.9749 -8.28028 0.287612
4 9.92487 -7.30817 1.04177
3 9.00806 -8.33895 -0.673927
4 9.17234 -7.47972 -1.325
4 7.9379 -8.3566 -0.532551
3 9.18436 -9.69071 -1.53504
4 8.26666 -9.86882 -2.16673
4 9.25213 -10.5215 -0.763159
3 10.3757 -9.72873 -2.484
4 10.5628 -10.6964 -2.89282
4 11.3139 -9.44144 -2.02465
3 10.3583 -8.69042 -3.61592
4 9.73128 -7.85778 -3.35271
4 9.78652 -9.07571 -4.42647
3 11.7862 -8.40666 -4.1481
4 12.4673 -8.1468 -3.30572
4 11.5807 -7.42438 -4.50569
3 12.3547 -9.36143 -5.07056
4 12.1258 -10.2832 -4.85125
4 13.4395 -9.30818 -4.73538
3 12.1699 -9.05031 -6.54971
4 12.2268 -7.97482 -6.66713
4 11.05 -9.21093 -6.79356
3 12.977 -9.83495 -7.55451
4 12.7792 -9.37823 -8.55334
4 12.6822 -10.8971 -7.5873
3 14.5758 -9.85712 -7.15116
4 14.7327 -10.4334 -6.26574
4 14.905 -8.82472 -7.04335
3 15.5252 -10.4508 -8.22975
4 15.4766 -9.81429 -9.02853
4 15.1578 -11.427 -8.54786
1 16.9482 -10.6301 -7.73533
2 16.8971 -11.3932 -7.01071
2 17.3076 -9.70826 -7.28079
2 17.4766 -10.9068 -8.64511
1 -1.99992 -6.89998 7.33327
2 -3.00003 -7.02397 6.94087
2 -1.72577 -5.90177 7.40313
2 -1.24553 -7.58916 6.91869
3 -1.90298 -7.43366 8.7563
4 -1.91925 -6.5877 9.41667
4 -0.826617 -7.78979 8.87505
3 -2.9352 -8.50342 8.97779
4 -2.73195 -9.43741 8.41423
4 -3.93687 -8.1581 8.61866
3 -3.13579 -8.74323 10.4231
4 -3.56718 -7.95008 10.9683
4 -2.07791 -8.94345 10.8017
3 -3.75097 -10.0372 10.7532
4 -2.91482 -10.5654 11.223
4 -3.95903 -10.6705 9.88406
3 -4.88336 -10.0547 11.741
4 -5.58857 -9.25117 11.496
4 -4.52956 -9.71386 12.6477
3 -5.38699 -11.4409 11.9927
4 -5.74027 -11.489 13.0435
4 -4.5661 -12.1029 11.9016
3 -6.56432 -12.0114 11.1519
4 -6.61794 -11.5054 10.1921
4 -7.42498 -11.5792 11.6414
3 -6.52384 -13.5847 10.8758
4 -6.7648 -14.0725 11.7729
4 -5.52137 -14.0914 10.5059
3 -7.63082 -14.0209 9.86948
4 -8.65243 -13.6894 10.177
4 -7.67723 -15.1202 9.81408
3 -7.38127 -13.4024 8.44015
4 -7.53337 -12.2847 8.51349
4 -8.23096 -13.587 7.85373
3 -6.06663 -13.7897 7.7837
4 -5.89429 -14.7904 7.92645
4 -5.313 -13.1289 8.22849
3 -5.95567 -13.5169 6.29873
4 -6.86391 -13.5787 5.67992
4 -5.16534 -14.1351 5.87637
3 -5.49377 -12.0088 6.11195
4 -4.4728 -11.8958 6.45049
4 -5.98946 -11.3693 6.78735
3 -5.66706 -11.3924 4.74926
4 -4.89188 -11.7685 4.1699
4 -5.45275 -10.2757 4.84913
3 -6.91635 -11.663 4.07526
4 -7.02565 -12.7154 3.69787
4 -6.92689 -10.8984 3.24496
3 -8.2018 -11.2625 4.88139
4 -8.06116 -10.2238 5.14147
4 -8.24232 -11.8408 5.81096
3 -9.44311 -11.6018 4.07264
4 -9.48948 -11.2131 3.10431
4 -10.282 -11.1243 4.65466
3 -9.67623 -13.0959 3.84118
4 -8.85259 -13.5975 3.43661
4 -10.5401 -13.1021 3.17298
3 -10.2023 -13.964 5.15927
4 -9.50085 -13.6844 5.99518
4 -10.198 -15.047 4.97782
3 -11.6491 -13.5217 5.55146
4 -12.3978 -13.8384 4.70694
4 -11.5852 -12.4859 5.73147
3 -12.3034 -14.2473 6.76611
4 -12.3718 -15.2666 6.47483
4 -13.2799 -13.9234 6.90385
3 -11.4297 -14.2082 8.03447
4 -11.0123 -13.1881 8.17372
4 -10.5443 -14.8142 7.73778
3 -11.9825 -14.8797 9.29674
4 -12.8169 -14.398 9.75585
4 -11.3158 -14.6742 10.1229
3 -12.0969 -16.3444 9.33701
4 -12.5537 -16.9027 8.53798
4 -12.6862 -16.6113 10.2171
3 -10.6085 -16.9399 9.44522
4 -10.3084 -16.7822 10.5235
4 -9.93951 -16.4441 8.76728
3 -10.5774 -18.4679 9.20718
4 -11.03 -18.7682 8.24235
4 -11.0983 -19.0557 9.98365
3 -9.11668 -19.0919 9.11907
4 -8.49198 -19.106 9.96011
4 -8.44305 -18.3974 8.60628
3 -9.02669 30.8607 8.47076
4 -9.5958 30.8377 7.51833
4 -9.52449 30.1393 9.06951
3 -7.57586 30.2075 8.32503
4 -7.57952 29.296 7.66137
4 -7.16507 30.1552 9.31157
3 -6.48584 -20.2192 7.67513
4 -6.34057 -19.3403 8.26922
4 -6.73225 -19.9841 6.67172
3 -5.12502 30.4302 7.93494
4 -5.07518 29.3974 8.3329
4 -4.61221 -20.2671 8.68767
3 -4.205 30.3003 6.6368
4 -3.16097 29.9663 6.89413
4 -4.12981 -20.0335 6.04931
3 -4.6305 29.2763 5.61
4 -3.9235 29.3241 4.72937
4 -5.48962 29.7139 5.07712
3 -4.70131 27.7725 6.08154
4 -5.53172 27.6185 6.75932
4 -3.90052 27.4647 6.6069
3 -5.01155 26.8698 4.95793
4 -5.06947 27.5489 4.15886
4 -5.96505 26.4051 4.94472
3 -3.80942 25.9506 4.76107
4 -3.83519 25.0177 5.35184
4 -2.94037 26.5409 4.95861
3 -3.74252 25.4265 3.33885
4 -3.56955 26.2631 2.67452
4 -4.61574 24.8226 3.1008
3 -2.58511 24.4213 3.12476
4 -2.70598 23.6756 3.97222
4 -1.64805 24.8665 3.33565
3 -2.39922 23.8457 1.78193
4 -2.08097 24.6075 1.00615
4 -3.23748 23.2876 1.49421
3 -1.19346 22.9571 1.82854
4 -1.1931 22.3358 2.69929
4 -0.309111 23.6399 1.94735
3 -0.97569 21.9811 0.625659
4 -1.24321 22.7667 -0.183398
4 -1.7837 21.1998 0.685904
3 0.414831 21.3918 0.455552
4 0.537691 20.6262 -0.306495
4 0.661735 20.7543 1.39312
3 1.52287 22.4256 -0.0491697
4 1.56241 23.0971 0.7621
4 1.33075 22.7566 -1.05413
3 2.88334 21.7722 -0.150371
4 2.89368 21.1425 -1.09023
4 3.20351 20.9902 0.572808
3 4.05392 22.7947 -0.344613
4 4.27574 23.2328 -1.37292
4 4.96995 22.3082 -0.225968
3 4.03713 23.9347 0.648173
4 3.38639 24.7935 0.325408
4 4.95842 24.5719 0.514196
3 3.92565 23.5212 2.12544
4 4.49968 22.5767 2.19939
4 2.91595 23.1537 2.20656
3 4.44866 24.5038 3.16211
4 3.63127 25.1946 3.25601
4 5.19681 25.1989 2.78738
3 4.9921 23.7574 4.42826
4 5.681 23.1864 4.01172
4 4.31424 23.3227 5.03525
3 5.78557 24.6149 5.34319
4 6.49527 25.0437 4.615
4 6.2344 23.9244 6.00583
3 4.96874 25.6707 6.13967
4 4.25876 25.1099 6.77961
4 4.23913 26.106 5.37942
3 5.78135 26.5685 7.05454
4 6.068 27.4675 6.45062
4 6.69709 26.0221 7.33575
3 5.26378 26.8513 8.43335
4 5.9516 27.4547 8.91006
4 5.19538 25.9179 8.99012
3 3.86085 27.4459 8.34646
4 3.35009 27.2244 9.32938
4 3.18372 27.0004 7.70527
3 3.7681 28.9203 7.88687
4 4.1057 28.9145 6.84176
4 4.33683 29.6567 8.49961
3 2.36083 29.3367 8.1328
4 2.42697 30.424 8.52231
4 1.87376 28.7467 8.82184
3 1.47262 29.5224 6.87291
4 1.74766 30.3273 6.26899
4 0.422463 29.7491 7.12845
3 1.40232 28.2853 6.04582
4 0.874515 27.5921 6.70539
4 2.28108 27.654 5.77784
3 0.527518 28.5788 4.78127
4 -0.534859 28.6829 4.99159
4 0.543439 27.8069 4.12038
3 1.0352 29.5272 3.75406
4 0.87145 30.5802 3.99925
4 0.408327 29.3944 2.96116
3 2.53111 29.2474 3.2908
4 2.56124 28.1136 3.11483
4 3.11505 29.6964 4.08202
3 2.85833 29.8859 1.91784
4 3.96191 29.5186 1.65581
4 2.95569 -20.2768 2.27096
3 2.00161 29.7688 0.742288
4 2.43069 30.3774 -0.0615167
4 1.1209 30.2886 1.0248
3 1.7119 28.2542 0.487937
4 1.45663 27.7025 1.37651
4 2.60267 27.798 0.0867472
3 0.443521 28.1564 -0.385547
4 0.500699 28.6517 -1.33632
4 -0.30683 28.6698 0.174084
3 0.104369 26.7001 -0.72604
4 -0.123443 26.1882 0.217875
4 0.939128 26.1573 -1.10073
3 -1.04652 26.3421 -1.70456
4 -2.0067 26.5539 -1.17793
4 -1.06311 25.2471 -1.80915
3 -1.10018 27.121 -3.04897
4 -0.0795636 27.0094 -3.49993
4 -1.15395 28.2347 -3.12344
3 -2.32694 26.5444 -3.89938
4 -3.26501 26.8279 -3.31323
4 -2.12005 25.555 -4.12779
3 -2.40783 27.1059 -5.32667
4 -1.58546 26.8036 -5.88345
4 -2.50584 28.2345 -5.24258
3 -3.56674 26.6104 -6.10954
4 -4.48883 26.635 -5.64538
4 -3.56495 25.4771 -6.08812
3 -3.57392 27.0753 -7.61876
4 -4.4157 26.5817 -8.06712
4 -2.60872 26.8722 -8.08421
3 -3.8044 28.6265 -7.72808
4 -3.46268 29.1578 -6.89126
4 -4.81874 28.8127 -7.61283
3 -3.42 29.1974 -9.07867
4 -4.2884 28.9146 -9.75952
4 -2.42548 28.9256 -9.4011
3 -3.70193 30.6377 -9.02951
4 -2.99385 -20.0667 -8.33258
4 -4.62951 30.7171 -8.48923
3 -3.85602 -19.8764 -10.3472
4 -4.22471 30.6529 -11.1004
4 -2.80658 -19.5076 -10.6521
3 -4.90965 -18.8497 -10.2222
4 -5.54035 -18.8531 -9.39372
4 -5.68987 -18.964 -11.0004
3 -4.49763 -17.33 -10.1699
4 -3.68739 -17.0434 -9.46272
4 -5.43205 -16.8189 -9.89539
3 -4.05036 -16.6802 -11.4636
4 -4.75427 -16.976 -12.2001
4 -3.14674 -17.2504 -11.7936
3 -3.50371 -15.2764 -11.2855
4 -2.84922 -14.9361 -12.0455
4 -2.94384 -15.3113 -10.3279
3 -4.53049 -14.2554 -11.0183
4 -4.11916 -13.3139 -10.8363
4 -5.01941 -14.5919 -10.0354
3 -5.70204 -14.1576 -12.0209
4 -6.4001 -14.9484 -11.8699
4 -5.41468 -14.1361 -13.1633
3 -6.39351 -12.772 -11.7356
4 -6.88001 -12.5237 -12.7081
4 -5.84097 -11.8443 -11.5108
3 -7.47854 -12.9915 -10.6134
4 -7.12245 -13.4894 -9.66266
4 -8.0434 -13.9371 -10.9266
3 -8.21026 -11.666 -10.129
4 -7.37638 -11.1309 -9.79454
4 -8.88065 -11.8469 -9.20695
3 -8.98192 -10.8831 -11.245
4 -9.91375 -11.366 -11.412
4 -8.26703 -10.8731 -11.9858
3 -9.47208 -9.34905 -10.88
4 -10.1098 -9.25441 -9.94973
4 -9.87983 -8.94901 -11.7868
3 -8.34138 -8.31438 -10.7424
4 -7.89746 -8.55136 -9.79761
4 -8.77295 -7.4661 -10.3614
3 -7.28681 -8.18694 -11.8298
4 -7.8221 -8.36783 -12.6782
4 -6.44508 -8.91738 -11.7308
3 -6.67219 -6.74262 -11.9379
4 -7.4901 -6.08366 -12.0706
4 -5.9663 -6.64171 -12.7259
3 -5.81181 -6.13319 -10.7169
4 -4.93056 -6.68143 -10.5369
4 -6.45336 -6.22062 -9.83574
3 -5.36097 -4.63534 -10.7877
4 -4.34176 -4.54018 -11.1128
4 -5.5543 -4.4171 -9.7984
3 -6.24084 -3.66379 -11.6471
4 -6.2224 -2.66597 -11.1948
4 -7.26835 -3.95402 -11.5287
3 -5.84012 -3.50309 -13.1289
4 -5.55917 -4.51107 -13.3594
4 -5.00415 -2.96392 -13.1763
3 -7.03538 -2.74698 -13.9728
4 -6.76655 -1.71717 -14.1409
4 -7.8711 -2.65851 -13.3077
3 -7.42422 -3.18089 -15.3399
4 -7.36691 -4.23651 -15.2225
4 -6.59564 -2.94068 -15.9071
3 -8.74005 -2.68501 -15.9997
4 -8.57635 -1.58587 -15.8248
4 -9.5871 -3.01267 -15.3742
3 -8.98209 -3.02459 -17.4508
4 -8.30552 -2.39076 -18.029
4 -9.99416 -2.63462 -17.7779
3 -8.79593 -4.55418 -17.719
4 -7.77281 -4.79404 -17.5065
4 -9.02115 -4.75445 -18.7817
3 -9.74308 -5.33599 -16.8795
4 -9.59211 -5.20132 -15.856
4 -9.41967 -6.43444 -16.9264
1 -11.361 -5.28453 -17.0801
2 -11.8091 -6.2322 -16.6292
2 -11.7033 -5.35087 -18.0594
2 -11.9062 -4.64624 -16.4978
1 25.385 0.0164311 6.75625
2 24.4958 -0.433491 7.10844
2 25.5716 0.650101 7.56734
2 24.9828 0.803806 6.03345
3 26.6964 -0.676974 6.27223
4 27.3693 -0.872558 7.12902
4 27.1984 0.190747 5.70757
3 26.3688 -1.82102 5.35996
4 27.2226 -2.1196 4.8067
4 25.5599 -1.38493 4.79354
3 25.9192 -3.17456 5.91623
4 26.6565 -3.34369 6.83721
4 26.147 -3.91676 5.14274
3 24.4941 -3.14263 6.22691
4 23.9787 -2.69926 5.44978
4 24.2768 -2.68174 7.13821
3 23.9051 -4.57127 6.27635
4 24.2757 -4.94422 7.19659
4 24.4184 -5.12293 5.48415
3 22.3548 -4.69864 6.15218
4 22.1025 -5.85086 6.04242
4 22.1526 -4.28646 5.18917
3 21.4344 -3.91486 7.08476
4 20.3781 -4.12264 6.82614
4 21.8134 -2.83374 6.891
3 21.7053 -4.25745 8.61214
4 22.5924 -4.13407 9.21475
4 21.6218 -5.32074 8.54224
3 20.482 -3.69922 9.37322
4 19.6608 -4.25811 8.97962
4 20.3055 -2.71669 9.08702
3 20.7313 -3.92821 10.8374
4 21.6002 -3.32786 11.0571
4 20.8255 -4.98551 11.0317
3 19.4714 -3.49107 11.6645
4 19.1539 -4.22677 12.447
4 18.5507 -3.37499 10.9935
3 19.6876 -2.15029 12.3464
4 19.845 -1.31856 11.6091
4 20.648 -2.30732 12.7754
3 18.471 -1.68394 13.1625
4 18.6364 -0.671071 13.6112
4 18.2961 -2.22332 14.0253
3 17.154 -1.64113 12.3099
4 16.8827 -2.69742 12.02
4 17.2883 -1.14578 11.321
3 15.8336 -1.19109 13.0274
4 16.0444 -0.799362 14.004
4 15.1713 -1.9972 13.1934
3 14.9326 -0.318816 12.3117
4 14.6737 -0.763234 11.3079
4 15.6055 0.568525 11.9698
3 13.6421 0.211515 12.9854
4 13.0457 -0.523822 13.5137
4 12.8578 0.583632 12.2308
3 13.8872 1.52119 13.861
4 14.2568 2.27255 13.1618
4 14.7204 1.39277 14.5839
3 12.7878 2.2636 14.7304
4 13.2915 3.08951 15.2421
4 12.3444 1.60206 15.4856
3 11.7446 2.9135 13.7504
4 11.225 2.03135 13.2971
4 12.1983 3.48772 12.9162
3 10.7706 3.66864 14.5595
4 11.288 4.61283 14.5076
4 10.8103 3.31638 15.5594
3 9.38197 3.80835 14.0177
4 9.32405 4.18961 12.9772
4 8.96434 4.4482 14.783
3 8.58222 2.46721 14.0571
4 9.19694 1.59211 13.7414
4 7.80559 2.41283 13.3006
3 7.92035 2.13007 15.4549
4 7.42857 2.95028 15.8385
4 8.78824 1.93978 16.1667
3 6.88863 0.945721 15.2771
4 5.94636 1.0606 14.7162
4 6.32506 0.767576 16.2275
3 7.58419 -0.352829 14.7041
4 8.57603 -0.581396 15.1097
4 7.82322 -0.399673 13.6239
3 6.77233 -1.5083 14.9857
4 5.73078 -1.3642 14.652
4 6.50207 -1.50857 16.0622
3 7.34818 -2.77147 14.3814
4 8.44532 -2.84636 14.0367
4 6.92765 -2.86771 13.3268
3 7.36783 -4.10529 15.2776
4 6.31281 -4.26492 15.7535
4 8.05429 -4.07458 16.0253
3 7.8141 -5.31812 14.6195
4 8.64802 -5.07237 13.9639
4 7.03017 -5.68336 14.0317
3 8.25142 -6.56379 15.4161
4 9.07044 -6.24759 16.0958
4 8.55054 -7.28568 14.8139
3 7.0935 -7.10438 16.2803
4 6.27088 -7.15548 15.633
4 7.0097 -6.44743 17.1019
3 7.51469 -8.62155 16.727
4 6.84264 -8.96666 17.5623
4 8.50148 -8.54612 17.04
3 7.48557 -9.62071 15.5408
4 7.68069 -9.20865 14.5687
4 6.49326 -10.0349 15.3874
3 8.43827 -10.813 15.5728
4 8.18843 -11.3462 16.4578
4 9.40766 -10.66 15.9355
3 8.2106 -11.8047 14.387
4 8.70603 -12.7843 14.6714
4 8.67944 -11.4674 13.5179
3 6.76199 -12.2953 14.0904
4 5.98321 -11.5626 13.9988
4 6.34474 -12.7207 15.0596
3 6.81647 -13.2327 12.7739
4 6.82799 -14.2387 13.0249
4 7.72039 -13.1376 12.2881
3 5.72814 -13.0155 11.7912
4 6.14205 -13.4602 10.7908
4 5.40825 -11.9948 11.6034
3 4.41337 -13.5932 12.191
4 3.67099 -12.8243 12.3092
4 4.43845 -14.0644 13.1751
3 3.906 -14.5753 11.0879
4 4.67452 -15.0972 10.5911
4 3.61947 -13.7761 10.2489
3 2.7346 -15.4674 11.5754
4 2.32354 -14.8895 12.3639
4 3.16823 -16.3054 12.1568
3 1.89065 -16.0575 10.4309
4 1.47858 -15.176 9.79391
4 1.09035 -16.6259 10.8731
3 2.63437 -17.1209 9.62586
4 2.69416 -17.9531 10.2628
4 3.63485 -16.7908 9.4428
3 1.89651 -17.4687 8.27832
4 2.51512 -18.0552 7.56119
4 1.76586 -16.5399 7.70238
3 0.451049 -17.9834 8.54146
4 -0.266177 -17.2027 8.98831
4 0.22768 -18.9443 9.05816
3 -0.240223 -18.1963 7.16432
4 -0.78459 -19.1891 7.30568
4 0.545965 -18.3636 6.37916
3 -1.31618 -17.1198 6.97295
4 -0.811885 -16.1376 6.96231
4 -2.01805 -17.0924 7.80473
3 -1.97986 -17.3072 5.60498
4 -2.75277 -18.1509 5.76933
4 -1.24944 -17.5939 4.84621
3 -2.76328 -16.109 5.09872
4 -2.29377 -15.2353 5.56891
4 -3.66759 -16.3893 5.45943
3 -2.89361 -15.901 3.55433
4 -1.92335 -15.7569 3.01449
4 -3.47464 -15.0637 3.3534
3 -3.80336 -17.0155 2.93505
4 -3.25823 -17.8188 3.24119
4 -3.83584 -16.8854 1.91654
3 -5.21812 -17.0451 3.55084
4 -5.68892 -16.0396 3.66635
4 -5.17338 -17.5619 4.46322
3 -6.15786 -17.8569 2.61454
4 -6.96603 -18.2097 3.20228
4 -5.57906 -18.7696 2.17406
3 -6.81041 -17.1256 1.41363
4 -7.1317 -17.9039 0.782857
4 -6.09922 -16.5502 0.931252
3 -8.00177 -16.1644 1.75301
4 -7.47323 -15.2661 2.24932
4 -8.69062 -16.836 2.42688
3 -8.60028 -15.6334 0.469491
4 -8.92086 -16.5273 -0.089297
4 -7.84568 -15.1471 -0.0157975
3 -9.81182 -14.8184 0.777184
4 -9.26947 -13.9261 1.14203
4 -10.2709 -15.4663 1.55053
3 -10.8237 -14.5371 -0.411404
4 -11.1251 -13.4762 -0.476709
4 -11.7275 -15.1023 -0.217933
3 -10.408 -14.8551 -1.81172
4 -11.179 -14.7569 -2.58849
4 -10.2589 -15.9882 -1.75826
3 -9.13621 -14.1136 -2.35691
4 -8.29779 -14.2057 -1.70629
4 -9.27655 -12.9975 -2.19555
3 -8.79209 -14.5378 -3.79729
4 -8.18427 -13.72 -4.24142
4 -9.65119 -14.6615 -4.37386
3 -7.97666 -15.9038 -3.77429
4 -8.4182 -16.7217 -3.20909
4 -7.12812 -15.487 -3.21902
3 -7.61509 -16.437 -5.11862
4 -7.50879 -15.5344 -5.70641
4 -8.55467 -16.9656 -5.35812
3 -6.23148 -17.3585 -4.98839
4 -6.06966 -17.864 -5.9112
4 -6.32983 -18.1008 -4.26818
3 -5.01183 -16.4429 -4.91251
4 -5.092 -15.483 -4.48564
4 -4.87833 -16.2635 -6.01599
3 -3.74097 -17.1147 -4.32965
4 -3.72324 -18.062 -4.86808
4 -3.87743 -17.2909 -3.22337
3 -2.45693 -16.2636 -4.60098
4 -1.71689 -16.6431 -3.78317
4 -2.69535 -15.2353 -4.2403
3 -1.92984 -16.4948 -6.03655
4 -2.70313 -16.3627 -6.67441
4 -1.74146 -17.6045 -6.1215
3 -0.585482 -15.8139 -6.43677
4 -0.337433 -15.6666 -7.50362
4 0.227336 -16.3449 -6.12906
3 -0.189554 -14.4386 -5.63868
4 -0.398981 -14.4545 -4.56849
4 -1.01132 -13.8471 -6.174
3 1.28046 -14.1443 -6.05976
4 1.95996 -15.0066 -5.95791
4 1.63401 -13.3485 -5.41836
3 1.22973 -13.5052 -7.42582
4 0.443178 -12.8046 -7.61407
4 0.776045 -14.1534 -8.16665
3 2.59763 -13.0082 -7.9774
4 3.2691 -13.852 -7.91332
4 2.88393 -12.2456 -7.20507
3 2.54183 -12.2955 -9.36484
4 2.09607 -13.0503 -10.0696
4 3.58317 -12.2951 -9.68853
3 1.78728 -10.9268 -9.56152
4 2.08509 -10.1775 -8.94288
4 0.79156 -11.1896 -9.18463
3 1.6788 -10.4338 -11.0232
4 2.63315 -10.4962 -11.4755
4 1.68146 -9.33961 -10.7728
3 0.401788 -10.7383 -11.807
4 -0.0145447 -9.7766 -12.112
4 -0.330522 -11.1263 -11.1998
3 0.68103 -11.6151 -13.0377
4 1.59657 -11.307 -13.6577
4 -0.263501 -11.3974 -13.6096
3 0.813874 -13.0933 -12.7269
4 0.437575 -13.2623 -11.713
4 1.83439 -13.424 -12.3889
3 0.43458 -14.1005 -13.8032
4 1.2702 -14.8705 -13.805
4 0.509412 -13.4681 -14.7484
3 -0.680804 -14.9944 -13.4792
4 -1.58112 -14.4652 -13.7657
4 -0.624799 -15.1788 -12.4428
3 -0.575021 -16.2298 -14.3025
4 0.357334 -16.6472 -14.1491
4 -0.79308 -16.0148 -15.3476
3 -1.57366 -17.3152 -14.0281
4 -2.64637 -17.0176 -14.005
4 -1.597 -17.3268 -12.9547
3 -1.2448 -18.6017 -14.6921
4 -0.202984 -18.9415 -14.6653
4 -1.53055 -18.498 -15.749
3 -2.08706 -19.8544 -14.2079
4 -3.08327 -19.4856 -14.4106
4 -1.95621 -20.1505 -13.1909
3 -1.9852 30.1915 -15.1583
4 -1.2207 29.6822 -14.7322
4 -1.68073 30.4842 -16.164
3 -3.35459 29.4807 -15.3761
4 -4.19938 30.0319 -15.6172
4 -3.7547 28.8881 -14.5239
3 -3.36223 28.3046 -16.3428
4 -4.028 27.5647 -15.9642
4 -2.40083 27.7842 -16.2241
3 -3.62364 28.7445 -17.8195
4 -3.2933 27.9477 -18.5676
4 -2.90443 29.564 -17.9605
3 -5.01077 29.1283 -18.2538
4 -5.01595 29.1497 31.9245
4 -5.30482 30.0982 -17.6335
3 -6.1426 28.0059 -18.0112
4 -5.57753 27.0032 -18.213
4 -6.9816 28.1157 -18.7486
3 -6.71442 28.052 -16.6153
4 -5.82291 27.9954 -15.9802
4 -7.18211 27.1463 -16.3297
3 -7.6733 29.218 -16.4516
4 -8.03064 29.5325 -17.3528
4 -7.12741 30.1518 -16.4291
3 -8.90644 29.183 -15.4644
4 -9.5494 28.4164 -15.8886
4 -9.4421 30.1393 -15.4251
3 -8.34048 28.6863 -14.0838
4 -8.14646 27.6255 -13.9727
4 -9.2666 28.9795 -13.5079
3 -7.33021 29.5399 -13.4505
4 -7.83435 30.458 -13.561
4 -6.52343 29.3842 -14.1125
3 -6.93762 29.1378 -11.9803
4 -6.36198 30.0501 -11.7363
4 -6.33706 28.2184 -12.0113
3 -8.05353 28.9817 -10.9199
4 -8.75442 28.1547 -11.1895
4 -8.4555 29.9613 -10.892
3 -7.55752 28.742 -9.56104
4 -6.84092 29.4312 -9.156
4 -6.97276 27.8061 -9.56306
1 -8.75888 28.6207 -8.61823
2 -9.32713 27.7354 -8.75353
2 -9.38592 29.5868 -8.54195
2 -8.39659 28.5935 -7.63567
1 9.11001 -18.2243 -1.63468
2 8.98687 -18.8178 -2.50992
2 9.54093 -18.9616 -0.946144
2 8.21034 -17.9027 -1.17867
3 9.78225 -16.9056 -1.81379
4 10.9135 -16.8874 -1.93486
4 9.77946 -16.2324 -0.917296
3 9.01312 -16.1009 -2.81613
4 8.86258 -15.1428 -2.59251
4 7.89193 -16.4689 -2.86264
3 9.51041 -16.0916 -4.34334
4 9.3698 -17.1925 -4.57459
4 10.5572 -15.712 -4.39509
3 8.60793 -15.3169 -5.24312
4 7.62107 -15.7469 -5.27667
4 8.86558 -15.3247 -6.26786
3 8.45383 -13.7794 -4.78189
4 9.40116 -13.3971 -4.3235
4 7.60549 -13.7508 -4.10584
3 8.09685 -12.91 -5.93368
4 7.42186 -13.4247 -6.60417
4 9.01614 -12.7012 -6.46585
3 7.25809 -11.6734 -5.57477
4 7.74332 -11.1553 -4.73868
4 6.27092 -12.016 -5.28364
3 7.06795 -10.9051 -6.89214
4 6.09771 -10.3094 -7.01617
4 6.90413 -11.572 -7.77814
3 8.20125 -9.93308 -7.26586
4 9.04538 -10.4881 -7.6947
4 8.6117 -9.50314 -6.31383
3 7.72291 -8.69436 -8.02126
4 6.88582 -8.23713 -7.34557
4 7.23491 -9.16364 -8.84482
3 8.79762 -7.77237 -8.47061
4 8.25405 -7.13937 -9.10799
4 9.57944 -8.23234 -9.15453
3 9.36738 -6.72881 -7.39274
4 10.386 -7.05674 -7.20096
4 8.77799 -6.76129 -6.45665
3 9.18302 -5.31282 -7.80376
4 9.47244 -4.78592 -6.92405
4 8.18621 -5.02509 -7.99021
3 10.0021 -4.79907 -9.06501
4 9.56165 -3.79665 -9.39252
4 9.67223 -5.53649 -9.87898
3 11.5636 -4.63671 -8.82569
4 11.8894 -5.41688 -8.19403
4 11.6128 -3.65072 -8.28825
3 12.303 -4.74036 -10.1088
4 13.0777 -4.04917 -9.79914
4 11.9469 -4.22109 -10.9594
3 13.0505 -6.12303 -10.3443
4 13.776 -6.40285 -9.59993
4 13.8101 -5.76324 -11.0092
3 12.1136 -7.3626 -10.8219
4 11.3816 -7.02647 -11.5651
4 11.4833 -7.84425 -10.0788
3 12.9627 -8.32493 -11.6717
4 13.7493 -8.66094 -11.1039
4 13.2917 -7.74199 -12.4778
3 12.2414 -9.55572 -12.3213
4 11.4478 -9.36691 -13.0382
4 11.6687 -10.1265 -11.5298
3 13.2371 -10.5037 -13.1125
4 13.5993 -9.81159 -13.8942
4 12.6704 -11.2337 -13.7089
3 14.4593 -11.259 -12.4454
4 14.8007 -10.5487 -11.6918
4 15.0688 -11.5612 -13.3543
3 14.0847 -12.5236 -11.652
4 13.5252 -12.2459 -10.6682
4 14.9579 -13.0117 -11.2782
3 13.2635 -13.5 -12.4714
4 13.8848 -13.8388 -13.2503
4 12.3076 -13.0839 -12.7257
3 13.0765 -14.8382 -11.8594
4 12.3155 -15.3404 -12.5345
4 12.5405 -14.9038 -10.8533
3 14.3195 -15.7312 -11.8165
4 15.0377 -15.1843 -11.3843
4 14.555 -15.8424 -12.9395
3 14.2853 -17.0318 -11.1879
4 15.1908 -17.5858 -11.5297
4 13.2976 -17.4789 -11.5237
3 14.1794 -17.071 -9.6713
4 14.2063 -18.0349 -9.04532
4 13.1001 -16.9703 -9.48807
3 14.8276 -15.9487 -8.93105
4 14.2043 -15.6533 -7.97662
4 14.8567 -14.9966 -9.47502
3 16.1463 -16.2041 -8.48231
4 16.591 -16.6742 -9.34705
4 16.2258 -16.911 -7.65199
3 16.9074 -15.0083 -7.94665
4 16.3656 -14.6699 -7.01338
4 16.7765 -14.2855 -8.73006
3 18.3071 -15.2981 -7.62208
4 18.7057 -16.0909 -8.27225
4 18.1542 -15.8162 -6.62313
3 19.2999 -14.0647 -7.55743
4 18.6546 -13.3748 -7.02195
4 19.4788 -13.571 -8.50119
3 20.6072 -14.4312 -6.71601
4 21.3399 -13.6642 -6.88339
4 21.1915 -15.2245 -7.10407
3 20.2921 -14.5066 -5.26618
4 19.8803 -15.468 -5.03189
4 19.2911 -14.1013 -4.86115
3 21.34 -14.178 -4.21474
4 22.0608 -14.9473 -4.17201
4 20.8921 -14.2623 -3.21914
3 21.9931 -12.769 -4.44467
4 21.178 -12.065 -4.75483
4 22.6766 -12.9145 -5.19138
3 22.6481 -12.1002 -3.2635
4 21.8665 -12.1982 -2.5498
4 22.7443 -11.1347 -3.56452
3 23.9994 -12.6707 -2.69315
4 24.7779 -12.4002 -3.38156
4 24.0325 -13.7613 -2.66869
3 24.3118 -12.4082 -1.22727
4 25.1365 -13.0631 -0.852288
4 23.5381 -12.6108 -0.531138
3 24.8316 -11.1112 -0.920617
4 24.1338 -10.3459 -1.26642
4 25.8394 -10.9964 -1.45279
3 24.9816 -10.8665 0.561477
4 25.6442 -11.5804 1.09146
4 24.0871 -10.9185 1.08712
3 25.4624 -9.4212 0.925324
4 24.7177 -8.72039 0.558957
4 26.3047 -9.25943 0.278816
3 25.8984 -9.26585 2.41312
4 26.6472 -10.0486 2.6554
4 25.1022 -9.35835 3.12481
3 26.427 -7.80647 2.7294
4 25.7232 -6.99052 2.96298
4 26.9354 -7.49283 1.77458
3 27.4723 -7.806 3.90102
4 27.9473 -6.83077 3.98735
4 28.2487 -8.52573 3.80485
3 26.7648 -8.10163 5.24388
4 26.3175 -9.10659 5.26754
4 26.0359 -7.39281 5.37816
3 27.7379 -8.01601 6.37314
4 27.1632 -8.14646 7.29594
4 28.0387 -6.95641 6.58573
3 29.0276 -8.87528 6.3488
4 29.628 -8.40004 5.59566
4 28.7834 -9.85674 5.94901
3 29.5605 -9.03604 7.72652
4 28.9004 -9.68817 8.26202
4 29.5155 -8.18607 8.2102
3 31.1085 -9.44994 7.69784
4 31.6201 -8.63827 7.22833
4 31.0371 -10.4194 7.19025
3 31.8138 -9.56164 9.02184
4 -18.2876 -9.76812 8.9195
4 31.4791 -10.4725 9.58159
3 31.8321 -8.29147 10.0116
4 30.8312 -7.94265 10.2073
4 -18.9663 -7.3805 9.49176
3 -18.8761 -8.2866 11.445
4 -18.498 -9.25843 11.6437
4 31.5304 -8.18988 12.069
3 -17.759 -7.209 11.51
4 -18.3072 -6.11672 11.511
4 -17.0685 -7.37858 10.6612
3 -17.2131 -7.23305 12.8807
4 -16.2228 -6.86065 12.935
4 -16.9555 -8.11479 13.2451
3 -18.0622 -6.65828 13.9838
4 -18.659 -7.61297 14.3559