12320
Atoms. Timestep: 5000000
C 10.9367 -12.9421 -8.8399
H 10.6148 -12.2785 -8.08279
H 12.0521 -13.2112 -8.70818
H 10.9778 -12.3821 -9.78307
C 10.091 -14.1925 -9.08758
H 9.9022 -14.6751 -8.18011
H 10.5135 -14.945 -9.85228
C 8.67498 -13.8334 -9.49451
H 8.67231 -13.2319 -10.3977
H 8.13562 -13.2629 -8.80185
C 7.82034 -15.1701 -9.5827
H 7.19623 -15.2142 -8.67547
H 8.61437 -15.8808 -9.54459
C 7.01675 -15.2836 -10.9089
H 7.0128 -16.1979 -11.5276
H 7.62069 -14.7129 -11.527
C 5.56065 -14.8258 -10.7861
H 5.2977 -14.1566 -11.6499
H 5.37278 -14.4065 -9.83441
C 4.54367 -15.9136 -11.0932
H 5.07159 -16.843 -10.8712
H 4.21322 -15.8511 -12.0714
C 3.29256 -15.7573 -10.2652
H 2.58937 -14.9265 -10.5096
H 3.49868 -15.5164 -9.24752
C 2.41672 -16.9747 -10.3027
H 2.85918 -17.8599 -9.86341
H 2.1199 -17.1841 -11.3392
C 1.13153 -16.8806 -9.46061
H 0.459436 -16.1515 -9.73373
H 1.31989 -16.6559 -8.50472
C 0.468836 -18.2292 -9.44531
H 0.222768 -18.4451 -10.3139
H -0.488617 -18.2162 -8.96151
C 1.213 -19.4151 -8.93598
H 1.68392 -19.0075 -8.02684
H 1.88908 -19.7441 -9.69823
C 0.428221 30.5702 -8.73355
H 0.205556 30.194 -9.71131
H -0.445701 30.8778 -8.08943
C 1.30378 29.5681 -8.04113
H 1.4164 29.9222 -6.96326
H 2.39753 29.5832 -8.30714
C 0.762739 28.1104 -8.00442
H 0.369896 27.666 -8.93193
H -0.0585708 28.2365 -7.29514
C 1.75007 27.0766 -7.43359
H 1.18322 26.1379 -7.30472
H 1.98286 27.2465 -6.32692
C 3.02612 27.0111 -8.32614
H 3.87638 27.2426 -7.79447
H 2.98774 27.7442 -9.0366
C 3.22595 25.7504 -9.20064
H 3.67274 25.8311 -10.1747
H 2.28326 25.2842 -9.37523
C 4.2169 24.8401 -8.44607
H 3.86651 24.4492 -7.44861
H 5.1994 25.2042 -8.17465
C 4.33815 23.4704 -9.11634
H 5.18547 22.9247 -8.79284
H 4.46667 23.6454 -10.2247
C 3.24262 22.5049 -8.83434
H 3.27381 21.8008 -9.68465
H 2.22447 22.8649 -8.95847
C 3.43715 21.7794 -7.48456
H 3.63034 22.5126 -6.6848
H 4.36743 21.1796 -7.60172
C 2.28702 20.895 -7.05222
H 2.18423 20.0198 -7.69697
H 1.33808 21.4063 -7.11277
C 2.42939 19.9565 -5.78424
H 1.61693 19.2544 -5.82635
H 2.4329 20.5254 -4.84427
C 3.58936 19.2067 -5.63427
H 4.40199 19.8762 -5.61131
H 3.8686 18.7789 -6.55156
C 3.67858 18.1919 -4.46357
H 3.2235 17.2686 -4.66727
H 3.50041 18.5468 -3.47622
C 5.15547 17.5781 -4.4505
H 5.77297 18.486 -4.62912
H 5.17869 16.9999 -5.40798
C 5.42153 16.393 -3.46683
H 6.46726 16.3098 -3.40414
H 5.12376 15.4316 -3.71658
C 4.72061 16.5633 -2.04757
H 3.59148 16.641 -2.13394
H 5.01833 17.5086 -1.62211
C 5.2304 15.4694 -1.03068
H 6.24049 15.714 -0.882508
H 5.17078 14.4814 -1.57309
C 4.60955 15.3488 0.450595
H 5.13327 14.8473 1.26261
H 3.60469 14.9429 0.381834
C 4.34185 16.8081 0.992018
H 3.94888 17.3517 0.201317
H 5.06208 17.4425 1.51101
C 3.22083 16.7657 2.00562
H 3.52012 16.0843 2.82327
H 2.37787 16.3027 1.64974
C 2.78864 18.0133 2.77451
H 2.18181 18.5556 2.0722
H 3.60055 18.6766 3.23004
C 1.58088 17.7008 3.71088
H 1.89362 17.104 4.54532
H 0.924621 16.9058 3.19992
C 0.816302 18.9461 4.18017
H 0.260555 18.7755 5.08193
H 0.106925 19.296 3.42957
C 1.64037 20.1923 4.52964
H 1.97669 20.5378 3.5755
H 2.51909 19.9983 5.27789
C 0.749631 21.2473 5.21661
H 0.268754 20.749 6.06023
H -0.0885751 21.3911 4.49867
C 1.53765 22.4304 5.66133
H 2.31589 22.8873 4.92159
H 2.28594 22.0902 6.33812
C 0.514549 23.3219 6.29694
H 0.00494154 22.796 7.10828
H -0.232066 23.6167 5.55717
C 1.07935 24.4559 7.21248
H 0.440975 25.2586 7.0329
H 2.05232 24.7271 6.77211
C 1.30054 24.1894 8.67289
H 0.401389 23.6924 9.24196
H 1.50381 25.146 9.13765
C 2.51768 23.2389 8.86679
H 3.16285 23.4781 8.02998
H 2.36977 22.1627 8.80343
C 3.47185 23.6362 10.0517
H 3.61216 24.6892 10.0584
H 4.44558 23.1813 9.90255
C 2.92238 23.1957 11.4501
H 2.58096 22.2003 11.3126
H 1.98332 23.7652 11.5864
C 3.97389 23.1781 12.5782
H 3.36628 22.7844 13.4486
H 4.33452 24.2109 12.5928
C 5.29445 22.1848 12.3061
H 5.92871 22.0973 13.2594
H 5.9637 22.3706 11.4334
C 4.62789 20.7702 12.3161
H 3.89329 20.6598 11.5053
H 4.141 20.6286 13.2864
C 5.67437 19.5646 12.1062
H 6.58702 19.6465 12.7698
H 5.89963 19.711 11.054
C 5.25074 18.0243 12.0806
H 5.8155 17.3617 11.5114
H 4.27005 18.0813 11.6129
C 5.16273 17.4272 13.5591
H 4.6389 18.1296 14.2458
H 6.22725 17.3946 13.9674
C 4.58205 15.9376 13.4785
H 3.55576 15.9232 12.9496
H 4.41403 15.8065 14.5133
C 5.53293 14.8702 12.9867
H 5.14162 14.1465 13.6973
H 6.53106 15.0597 13.4569
C 5.37785 14.5548 11.5013
H 5.58559 15.1789 10.6468
H 4.41712 14.0341 11.354
C 6.38017 13.4157 11.0156
H 5.97894 12.3676 11.0258
H 7.08698 13.2437 11.7765
C 7.28562 13.614 9.7814
H 7.97344 14.4533 9.79284
H 6.70629 13.6793 8.95052
C 8.35796 12.4153 9.63973
H 8.19187 11.953 8.63102
H 8.21679 11.6701 10.5069
C 9.82039 12.8649 9.36493
H 10.2645 13.3142 10.3158
H 9.83187 13.643 8.65212
C 10.6877 11.6202 8.76127
H 11.7614 11.962 8.73557
H 10.5687 11.4586 7.62989
C 10.5138 10.209 9.48853
H 9.43503 9.87848 9.3313
H 10.763 10.3099 10.5717
C 11.576 9.11245 9.01533
H 11.5584 8.37669 9.71017
H 12.5402 9.58721 9.04752
C 11.3502 8.52085 7.61466
H 12.2629 7.95254 7.25647
H 11.1913 9.35428 6.92116
C 10.1488 7.61071 7.54719
H 9.29626 8.20947 7.78526
H 10.3282 6.86389 8.34115
C 9.90636 7.13854 6.1453
H 10.8538 6.61291 5.79978
H 9.73095 7.97403 5.48787
C 8.72982 6.11984 5.90557
H 8.41538 6.26167 4.85792
H 7.78941 6.39018 6.40758
C 9.06215 4.58682 5.99462
H 9.00901 4.40678 7.0965
H 10.0775 4.20751 5.71898
C 8.0174 3.87766 5.14908
H 7.95678 4.22669 4.05568
H 7.03717 4.19327 5.64674
C 8.21458 2.39428 5.23077
H 8.24312 2.20212 6.28908
H 9.1053 2.15714 4.68181
C 7.05722 1.66428 4.6657
H 7.2947 0.595261 4.81382
H 6.87325 1.74102 3.62047
C 5.79481 1.81184 5.57364
H 5.31671 2.87183 5.66243
H 6.1731 1.85287 6.53977
C 4.77168 0.691671 5.35418
H 4.0334 0.998298 5.99937
H 4.95799 -0.321531 5.72326
C 4.46264 0.623387 3.8552
H 5.12135 -0.14612 3.41039
H 4.7289 1.53249 3.40336
C 2.99599 0.2326 3.5699
H 2.92513 -0.770556 3.8274
H 2.92713 -0.0302604 2.48976
C 1.85253 1.27417 3.99438
H 1.70033 1.85729 3.13001
H 2.10091 1.97703 4.76463
C 0.49952 0.609465 4.44875
H 0.198526 -0.215477 3.79842
H -0.270088 1.3797 4.37707
C 0.654362 -0.10848 5.75215
H 0.911599 0.522456 6.56288
H 1.44417 -0.823484 5.51501
C -0.617238 -0.81832 6.3107
H -0.859661 -1.47657 5.46062
H -1.51371 -0.122202 6.52427
C -0.403905 -1.40833 7.77752
H -1.30487 -1.15404 8.34256
H 0.372143 -0.869033 8.36538
C -0.501508 -2.93762 7.8997
H -1.33237 -3.48365 7.31798
H -0.674184 -3.23774 8.90299
C 0.872089 -3.63039 7.62751
H 1.05592 -4.54241 8.11877
H 1.83294 -3.06587 7.76379
C 0.981393 -4.15689 6.15792
H 0.575814 -3.34294 5.57766
H 0.224389 -4.92575 6.00422
C 2.25191 -4.35309 5.36406
H 2.97095 -3.58924 5.4976
H 1.89194 -4.33872 4.38019
C 2.81958 -5.72931 5.79247
H 2.27509 -6.64479 5.81467
H 3.0974 -5.72439 6.85355
C 4.15018 -5.9347 5.03927
H 4.85356 -5.10775 5.29595
H 3.95567 -5.83893 3.98852
C 4.86444 -7.36353 5.32131
H 4.12498 -8.09833 5.16069
H 5.23624 -7.23633 6.34066
C 6.09589 -7.56607 4.37518
H 6.93423 -6.80852 4.31515
H 5.80708 -7.51018 3.33264
C 6.66927 -9.00729 4.40135
H 5.94455 -9.66617 3.8877
H 6.73638 -9.23201 5.57302
C 8.13202 -9.18225 3.93306
H 8.36845 -10.2304 4.00618
H 8.86334 -8.65372 4.57198
C 8.5291 -8.68459 2.51271
H 8.49997 -7.64091 2.64698
H 7.72038 -8.77932 1.73976
C 9.78778 -9.26033 1.76877
H 9.59223 -10.2966 1.53637
H 10.6162 -9.15016 2.40006
C 10.009 -8.25647 0.649983
H 10.9749 -8.28028 0.287612
H 9.92487 -7.30817 1.04177
C 9.00806 -8.33895 -0.673927
H 9.17234 -7.47972 -1.325
H 7.9379 -8.3566 -0.532551
C 9.18436 -9.69071 -1.53504
H 8.26666 -9.86882 -2.16673
H 9.25213 -10.5215 -0.763159
C 10.3757 -9.72873 -2.484
H 10.5628 -10.6964 -2.89282
H 11.3139 -9.44144 -2.02465
C 10.3583 -8.69042 -3.61592
H 9.73128 -7.85778 -3.35271
H 9.78652 -9.07571 -4.42647
C 11.7862 -8.40666 -4.1481
H 12.4673 -8.1468 -3.30572
H 11.5807 -7.42438 -4.50569
C 12.3547 -9.36143 -5.07056
H 12.1258 -10.2832 -4.85125
H 13.4395 -9.30818 -4.73538
C 12.1699 -9.05031 -6.54971
H 12.2268 -7.97482 -6.66713
H 11.05 -9.21093 -6.79356
C 12.977 -9.83495 -7.55451
H 12.7792 -9.37823 -8.55334
H 12.6822 -10.8971 -7.5873
C 14.5758 -9.85712 -7.15116
H 14.7327 -10.4334 -6.26574
H 14.905 -8.82472 -7.04335
C 15.5252 -10.4508 -8.22975
H 15.4766 -9.81429 -9.02853
H 15.1578 -11.427 -8.54786
C 16.9482 -10.6301 -7.73533
H 16.8971 -11.3932 -7.01071
H 17.3076 -9.70826 -7.28079
H 17.4766 -10.9068 -8.64511
C -1.99992 -6.89998 7.33327
H -3.00003 -7.02397 6.94087
H -1.72577 -5.90177 7.40313
H -1.24553 -7.58916 6.91869
C -1.90298 -7.43366 8.7563
H -1.91925 -6.5877 9.41667
H -0.826617 -7.78979 8.87505
C -2.9352 -8.50342 8.97779
H -2.73195 -9.43741 8.41423
H -3.93687 -8.1581 8.61866
C -3.13579 -8.74323 10.4231
H -3.56718 -7.95008 10.9683
H -2.07791 -8.94345 10.8017
C -3.75097 -10.0372 10.7532
H -2.91482 -10.5654 11.223
H -3.95903 -10.6705 9.88406
C -4.88336 -10.0547 11.741
H -5.58857 -9.25117 11.496
H -4.52956 -9.71386 12.6477
C -5.38699 -11.4409 11.9927
H -5.74027 -11.489 13.0435
H -4.5661 -12.1029 11.9016
C -6.56432 -12.0114 11.1519
H -6.61794 -11.5054 10.1921
H -7.42498 -11.5792 11.6414
C -6.52384 -13.5847 10.8758
H -6.7648 -14.0725 11.7729
H -5.52137 -14.0914 10.5059
C -7.63082 -14.0209 9.86948
H -8.65243 -13.6894 10.177
H -7.67723 -15.1202 9.81408
C -7.38127 -13.4024 8.44015
H -7.53337 -12.2847 8.51349
H -8.23096 -13.587 7.85373
C -6.06663 -13.7897 7.7837
H -5.89429 -14.7904 7.92645
H -5.313 -13.1289 8.22849
C -5.95567 -13.5169 6.29873
H -6.86391 -13.5787 5.67992
H -5.16534 -14.1351 5.87637
C -5.49377 -12.0088 6.11195
H -4.4728 -11.8958 6.45049
H -5.98946 -11.3693 6.78735
C -5.66706 -11.3924 4.74926
H -4.89188 -11.7685 4.1699
H -5.45275 -10.2757 4.84913
C -6.91635 -11.663 4.07526
H -7.02565 -12.7154 3.69787
H -6.92689 -10.8984 3.24496
C -8.2018 -11.2625 4.88139
H -8.06116 -10.2238 5.14147
H -8.24232 -11.8408 5.81096
C -9.44311 -11.6018 4.07264
H -9.48948 -11.2131 3.10431
H -10.282 -11.1243 4.65466
C -9.67623 -13.0959 3.84118
H -8.85259 -13.5975 3.43661
H -10.5401 -13.1021 3.17298
C -10.2023 -13.964 5.15927
H -9.50085 -13.6844 5.99518
H -10.198 -15.047 4.97782
C -11.6491 -13.5217 5.55146
H -12.3978 -13.8384 4.70694
H -11.5852 -12.4859 5.73147
C -12.3034 -14.2473 6.76611
H -12.3718 -15.2666 6.47483
H -13.2799 -13.9234 6.90385
C -11.4297 -14.2082 8.03447
H -11.0123 -13.1881 8.17372
H -10.5443 -14.8142 7.73778
C -11.9825 -14.8797 9.29674
H -12.8169 -14.398 9.75585
H -11.3158 -14.6742 10.1229
C -12.0969 -16.3444 9.33701
H -12.5537 -16.9027 8.53798
H -12.6862 -16.6113 10.2171
C -10.6085 -16.9399 9.44522
H -10.3084 -16.7822 10.5235
H -9.93951 -16.4441 8.76728
C -10.5774 -18.4679 9.20718
H -11.03 -18.7682 8.24235
H -11.0983 -19.0557 9.98365
C -9.11668 -19.0919 9.11907
H -8.49198 -19.106 9.96011
H -8.44305 -18.3974 8.60628
C -9.02669 30.8607 8.47076
H -9.5958 30.8377 7.51833
H -9.52449 30.1393 9.06951
C -7.57586 30.2075 8.32503
H -7.57952 29.296 7.66137
H -7.16507 30.1552 9.31157
C -6.48584 -20.2192 7.67513
H -6.34057 -19.3403 8.26922
H -6.73225 -19.9841 6.67172
C -5.12502 30.4302 7.93494
H -5.07518 29.3974 8.3329
H -4.61221 -20.2671 8.68767
C -4.205 30.3003 6.6368
H -3.16097 29.9663 6.89413
H -4.12981 -20.0335 6.04931
C -4.6305 29.2763 5.61
H -3.9235 29.3241 4.72937
H -5.48962 29.7139 5.07712
C -4.70131 27.7725 6.08154
H -5.53172 27.6185 6.75932
H -3.90052 27.4647 6.6069
C -5.01155 26.8698 4.95793
H -5.06947 27.5489 4.15886
H -5.96505 26.4051 4.94472
C -3.80942 25.9506 4.76107
H -3.83519 25.0177 5.35184
H -2.94037 26.5409 4.95861
C -3.74252 25.4265 3.33885
H -3.56955 26.2631 2.67452
H -4.61574 24.8226 3.1008
C -2.58511 24.4213 3.12476
H -2.70598 23.6756 3.97222
H -1.64805 24.8665 3.33565
C -2.39922 23.8457 1.78193
H -2.08097 24.6075 1.00615
H -3.23748 23.2876 1.49421
C -1.19346 22.9571 1.82854
H -1.1931 22.3358 2.69929
H -0.309111 23.6399 1.94735
C -0.97569 21.9811 0.625659
H -1.24321 22.7667 -0.183398
H -1.7837 21.1998 0.685904
C 0.414831 21.3918 0.455552
H 0.537691 20.6262 -0.306495
H 0.661735 20.7543 1.39312
C 1.52287 22.4256 -0.0491697
H 1.56241 23.0971 0.7621
H 1.33075 22.7566 -1.05413
C 2.88334 21.7722 -0.150371
H 2.89368 21.1425 -1.09023
H 3.20351 20.9902 0.572808
C 4.05392 22.7947 -0.344613
H 4.27574 23.2328 -1.37292
H 4.96995 22.3082 -0.225968
C 4.03713 23.9347 0.648173
H 3.38639 24.7935 0.325408
H 4.95842 24.5719 0.514196
C 3.92565 23.5212 2.12544
H 4.49968 22.5767 2.19939
H 2.91595 23.1537 2.20656
C 4.44866 24.5038 3.16211
H 3.63127 25.1946 3.25601
H 5.19681 25.1989 2.78738
C 4.9921 23.7574 4.42826
H 5.681 23.1864 4.01172
H 4.31424 23.3227 5.03525
C 5.78557 24.6149 5.34319
H 6.49527 25.0437 4.615
H 6.2344 23.9244 6.00583
C 4.96874 25.6707 6.13967
H 4.25876 25.1099 6.77961
H 4.23913 26.106 5.37942
C 5.78135 26.5685 7.05454
H 6.068 27.4675 6.45062
H 6.69709 26.0221 7.33575
C 5.26378 26.8513 8.43335
H 5.9516 27.4547 8.91006
H 5.19538 25.9179 8.99012
C 3.86085 27.4459 8.34646
H 3.35009 27.2244 9.32938
H 3.18372 27.0004 7.70527
C 3.7681 28.9203 7.88687
H 4.1057 28.9145 6.84176
H 4.33683 29.6567 8.49961
C 2.36083 29.3367 8.1328
H 2.42697 30.424 8.52231
H 1.87376 28.7467 8.82184
C 1.47262 29.5224 6.87291
H 1.74766 30.3273 6.26899
H 0.422463 29.7491 7.12845
C 1.40232 28.2853 6.04582
H 0.874515 27.5921 6.70539
H 2.28108 27.654 5.77784
C 0.527518 28.5788 4.78127
H -0.534859 28.6829 4.99159
H 0.543439 27.8069 4.12038
C 1.0352 29.5272 3.75406
H 0.87145 30.5802 3.99925
H 0.408327 29.3944 2.96116
C 2.53111 29.2474 3.2908
H 2.56124 28.1136 3.11483
H 3.11505 29.6964 4.08202
C 2.85833 29.8859 1.91784
H 3.96191 29.5186 1.65581
H 2.95569 -20.2768 2.27096
C 2.00161 29.7688 0.742288
H 2.43069 30.3774 -0.0615167
H 1.1209 30.2886 1.0248
C 1.7119 28.2542 0.487937
H 1.45663 27.7025 1.37651
H 2.60267 27.798 0.0867472
C 0.443521 28.1564 -0.385547
H 0.500699 28.6517 -1.33632
H -0.30683 28.6698 0.174084
C 0.104369 26.7001 -0.72604
H -0.123443 26.1882 0.217875
H 0.939128 26.1573 -1.10073
C -1.04652 26.3421 -1.70456
H -2.0067 26.5539 -1.17793
H -1.06311 25.2471 -1.80915
C -1.10018 27.121 -3.04897
H -0.0795636 27.0094 -3.49993
H -1.15395 28.2347 -3.12344
C -2.32694 26.5444 -3.89938
H -3.26501 26.8279 -3.31323
H -2.12005 25.555 -4.12779
C -2.40783 27.1059 -5.32667
H -1.58546 26.8036 -5.88345
H -2.50584 28.2345 -5.24258
C -3.56674 26.6104 -6.10954
H -4.48883 26.635 -5.64538
H -3.56495 25.4771 -6.08812
C -3.57392 27.0753 -7.61876
H -4.4157 26.5817 -8.06712
H -2.60872 26.8722 -8.08421
C -3.8044 28.6265 -7.72808
H -3.46268 29.1578 -6.89126
H -4.81874 28.8127 -7.61283
C -3.42 29.1974 -9.07867
H -4.2884 28.9146 -9.75952
H -2.42548 28.9256 -9.4011
C -3.70193 30.6377 -9.02951
H -2.99385 -20.0667 -8.33258
H -4.62951 30.7171 -8.48923
C -3.85602 -19.8764 -10.3472
H -4.22471 30.6529 -11.1004
H -2.80658 -19.5076 -10.6521
C -4.90965 -18.8497 -10.2222
H -5.54035 -18.8531 -9.39372
H -5.68987 -18.964 -11.0004
C -4.49763 -17.33 -10.1699
H -3.68739 -17.0434 -9.46272
H -5.43205 -16.8189 -9.89539
C -4.05036 -16.6802 -11.4636
H -4.75427 -16.976 -12.2001
H -3.14674 -17.2504 -11.7936
C -3.50371 -15.2764 -11.2855
H -2.84922 -14.9361 -12.0455
H -2.94384 -15.3113 -10.3279
C -4.53049 -14.2554 -11.0183
H -4.11916 -13.3139 -10.8363
H -5.01941 -14.5919 -10.0354
C -5.70204 -14.1576 -12.0209
H -6.4001 -14.9484 -11.8699
H -5.41468 -14.1361 -13.1633
C -6.39351 -12.772 -11.7356
H -6.88001 -12.5237 -12.7081
H -5.84097 -11.8443 -11.5108
C -7.47854 -12.9915 -10.6134
H -7.12245 -13.4894 -9.66266
H -8.0434 -13.9371 -10.9266
C -8.21026 -11.666 -10.129
H -7.37638 -11.1309 -9.79454
H -8.88065 -11.8469 -9.20695
C -8.98192 -10.8831 -11.245
H -9.91375 -11.366 -11.412
H -8.26703 -10.8731 -11.9858
C -9.47208 -9.34905 -10.88
H -10.1098 -9.25441 -9.94973
H -9.87983 -8.94901 -11.7868
C -8.34138 -8.31438 -10.7424
H -7.89746 -8.55136 -9.79761
H -8.77295 -7.4661 -10.3614
C -7.28681 -8.18694 -11.8298
H -7.8221 -8.36783 -12.6782
H -6.44508 -8.91738 -11.7308
C -6.67219 -6.74262 -11.9379
H -7.4901 -6.08366 -12.0706
H -5.9663 -6.64171 -12.7259
C -5.81181 -6.13319 -10.7169
H -4.93056 -6.68143 -10.5369
H -6.45336 -6.22062 -9.83574
C -5.36097 -4.63534 -10.7877
H -4.34176 -4.54018 -11.1128
H -5.5543 -4.4171 -9.7984
C -6.24084 -3.66379 -11.6471
H -6.2224 -2.66597 -11.1948
H -7.26835 -3.95402 -11.5287
C -5.84012 -3.50309 -13.1289
H -5.55917 -4.51107 -13.3594
H -5.00415 -2.96392 -13.1763
C -7.03538 -2.74698 -13.9728
H -6.76655 -1.71717 -14.1409
H -7.8711 -2.65851 -13.3077
C -7.42422 -3.18089 -15.3399
H -7.36691 -4.23651 -15.2225
H -6.59564 -2.94068 -15.9071
C -8.74005 -2.68501 -15.9997
H -8.57635 -1.58587 -15.8248
H -9.5871 -3.01267 -15.3742
C -8.98209 -3.02459 -17.4508
H -8.30552 -2.39076 -18.029
H -9.99416 -2.63462 -17.7779
C -8.79593 -4.55418 -17.719
H -7.77281 -4.79404 -17.5065
H -9.02115 -4.75445 -18.7817
C -9.74308 -5.33599 -16.8795
H -9.59211 -5.20132 -15.856
H -9.41967 -6.43444 -16.9264
C -11.361 -5.28453 -17.0801
H -11.8091 -6.2322 -16.6292
H -11.7033 -5.35087 -18.0594
H -11.9062 -4.64624 -16.4978
C 25.385 0.0164311 6.75625
H 24.4958 -0.433491 7.10844
H 25.5716 0.650101 7.56734
H 24.9828 0.803806 6.03345
C 26.6964 -0.676974 6.27223
H 27.3693 -0.872558 7.12902
H 27.1984 0.190747 5.70757
C 26.3688 -1.82102 5.35996
H 27.2226 -2.1196 4.8067
H 25.5599 -1.38493 4.79354
C 25.9192 -3.17456 5.91623
H 26.6565 -3.34369 6.83721
H 26.147 -3.91676 5.14274
C 24.4941 -3.14263 6.22691
H 23.9787 -2.69926 5.44978
H 24.2768 -2.68174 7.13821
C 23.9051 -4.57127 6.27635
H 24.2757 -4.94422 7.19659
H 24.4184 -5.12293 5.48415
C 22.3548 -4.69864 6.15218
H 22.1025 -5.85086 6.04242
H 22.1526 -4.28646 5.18917
C 21.4344 -3.91486 7.08476
H 20.3781 -4.12264 6.82614
H 21.8134 -2.83374 6.891
C 21.7053 -4.25745 8.61214
H 22.5924 -4.13407 9.21475
H 21.6218 -5.32074 8.54224
C 20.482 -3.69922 9.37322
H 19.6608 -4.25811 8.97962
H 20.3055 -2.71669 9.08702
C 20.7313 -3.92821 10.8374
H 21.6002 -3.32786 11.0571
H 20.8255 -4.98551 11.0317
C 19.4714 -3.49107 11.6645
H 19.1539 -4.22677 12.447
H 18.5507 -3.37499 10.9935
C 19.6876 -2.15029 12.3464
H 19.845 -1.31856 11.6091
H 20.648 -2.30732 12.7754
C 18.471 -1.68394 13.1625
H 18.6364 -0.671071 13.6112
H 18.2961 -2.22332 14.0253
C 17.154 -1.64113 12.3099
H 16.8827 -2.69742 12.02
H 17.2883 -1.14578 11.321
C 15.8336 -1.19109 13.0274
H 16.0444 -0.799362 14.004
H 15.1713 -1.9972 13.1934
C 14.9326 -0.318816 12.3117
H 14.6737 -0.763234 11.3079
H 15.6055 0.568525 11.9698
C 13.6421 0.211515 12.9854
H 13.0457 -0.523822 13.5137
H 12.8578 0.583632 12.2308
C 13.8872 1.52119 13.861
H 14.2568 2.27255 13.1618
H 14.7204 1.39277 14.5839
C 12.7878 2.2636 14.7304
H 13.2915 3.08951 15.2421
H 12.3444 1.60206 15.4856
C 11.7446 2.9135 13.7504
H 11.225 2.03135 13.2971
H 12.1983 3.48772 12.9162
C 10.7706 3.66864 14.5595
H 11.288 4.61283 14.5076
H 10.8103 3.31638 15.5594
C 9.38197 3.80835 14.0177
H 9.32405 4.18961 12.9772
H 8.96434 4.4482 14.783
C 8.58222 2.46721 14.0571
H 9.19694 1.59211 13.7414
H 7.80559 2.41283 13.3006
C 7.92035 2.13007 15.4549
H 7.42857 2.95028 15.8385
H 8.78824 1.93978 16.1667
C 6.88863 0.945721 15.2771
H 5.94636 1.0606 14.7162
H 6.32506 0.767576 16.2275
C 7.58419 -0.352829 14.7041
H 8.57603 -0.581396 15.1097
H 7.82322 -0.399673 13.6239
C 6.77233 -1.5083 14.9857
H 5.73078 -1.3642 14.652
H 6.50207 -1.50857 16.0622
C 7.34818 -2.77147 14.3814
H 8.44532 -2.84636 14.0367
H 6.92765 -2.86771 13.3268
C 7.36783 -4.10529 15.2776
H 6.31281 -4.26492 15.7535
H 8.05429 -4.07458 16.0253
C 7.8141 -5.31812 14.6195
H 8.64802 -5.07237 13.9639
H 7.03017 -5.68336 14.0317
C 8.25142 -6.56379 15.4161
H 9.07044 -6.24759 16.0958
H 8.55054 -7.28568 14.8139
C 7.0935 -7.10438 16.2803
H 6.27088 -7.15548 15.633
H 7.0097 -6.44743 17.1019
C 7.51469 -8.62155 16.727
H 6.84264 -8.96666 17.5623
H 8.50148 -8.54612 17.04
C 7.48557 -9.62071 15.5408
H 7.68069 -9.20865 14.5687
H 6.49326 -10.0349 15.3874
C 8.43827 -10.813 15.5728
H 8.18843 -11.3462 16.4578
H 9.40766 -10.66 15.9355
C 8.2106 -11.8047 14.387
H 8.70603 -12.7843 14.6714
H 8.67944 -11.4674 13.5179
C 6.76199 -12.2953 14.0904
H 5.98321 -11.5626 13.9988
H 6.34474 -12.7207 15.0596
C 6.81647 -13.2327 12.7739
H 6.82799 -14.2387 13.0249
H 7.72039 -13.1376 12.2881
C 5.72814 -13.0155 11.7912
H 6.14205 -13.4602 10.7908
H 5.40825 -11.9948 11.6034
C 4.41337 -13.5932 12.191
H 3.67099 -12.8243 12.3092
H 4.43845 -14.0644 13.1751
C 3.906 -14.5753 11.0879
H 4.67452 -15.0972 10.5911
H 3.61947 -13.7761 10.2489
C 2.7346 -15.4674 11.5754
H 2.32354 -14.8895 12.3639
H 3.16823 -16.3054 12.1568
C 1.89065 -16.0575 10.4309
H 1.47858 -15.176 9.79391
H 1.09035 -16.6259 10.8731
C 2.63437 -17.1209 9.62586
H 2.69416 -17.9531 10.2628
H 3.63485 -16.7908 9.4428
C 1.89651 -17.4687 8.27832
H 2.51512 -18.0552 7.56119
H 1.76586 -16.5399 7.70238
C 0.451049 -17.9834 8.54146
H -0.266177 -17.2027 8.98831
H 0.22768 -18.9443 9.05816
C -0.240223 -18.1963 7.16432
H -0.78459 -19.1891 7.30568
H 0.545965 -18.3636 6.37916
C -1.31618 -17.1198 6.97295
H -0.811885 -16.1376 6.96231
H -2.01805 -17.0924 7.80473
C -1.97986 -17.3072 5.60498
H -2.75277 -18.1509 5.76933
H -1.24944 -17.5939 4.84621
C -2.76328 -16.109 5.09872
H -2.29377 -15.2353 5.56891
H -3.66759 -16.3893 5.45943
C -2.89361 -15.901 3.55433
H -1.92335 -15.7569 3.01449
H -3.47464 -15.0637 3.3534
C -3.80336 -17.0155 2.93505
H -3.25823 -17.8188 3.24119
H -3.83584 -16.8854 1.91654
C -5.21812 -17.0451 3.55084
H -5.68892 -16.0396 3.66635
H -5.17338 -17.5619 4.46322
C -6.15786 -17.8569 2.61454
H -6.96603 -18.2097 3.20228
H -5.57906 -18.7696 2.17406
C -6.81041 -17.1256 1.41363
H -7.1317 -17.9039 0.782857
H -6.09922 -16.5502 0.931252
C -8.00177 -16.1644 1.75301
H -7.47323 -15.2661 2.24932
H -8.69062 -16.836 2.42688
C -8.60028 -15.6334 0.469491
H -8.92086 -16.5273 -0.089297
H -7.84568 -15.1471 -0.0157975
C -9.81182 -14.8184 0.777184
H -9.26947 -13.9261 1.14203
H -10.2709 -15.4663 1.55053
C -10.8237 -14.5371 -0.411404
H -11.1251 -13.4762 -0.476709
H -11.7275 -15.1023 -0.217933
C -10.408 -14.8551 -1.81172
H -11.179 -14.7569 -2.58849
H -10.2589 -15.9882 -1.75826
C -9.13621 -14.1136 -2.35691
H -8.29779 -14.2057 -1.70629
H -9.27655 -12.9975 -2.19555
C -8.79209 -14.5378 -3.79729
H -8.18427 -13.72 -4.24142
H -9.65119 -14.6615 -4.37386
C -7.97666 -15.9038 -3.77429
H -8.4182 -16.7217 -3.20909
H -7.12812 -15.487 -3.21902
C -7.61509 -16.437 -5.11862
H -7.50879 -15.5344 -5.70641
H -8.55467 -16.9656 -5.35812
C -6.23148 -17.3585 -4.98839
H -6.06966 -17.864 -5.9112
H -6.32983 -18.1008 -4.26818
C -5.01183 -16.4429 -4.91251
H -5.092 -15.483 -4.48564
H -4.87833 -16.2635 -6.01599
C -3.74097 -17.1147 -4.32965
H -3.72324 -18.062 -4.86808
H -3.87743 -17.2909 -3.22337
C -2.45693 -16.2636 -4.60098
H -1.71689 -16.6431 -3.78317
H -2.69535 -15.2353 -4.2403
C -1.92984 -16.4948 -6.03655
H -2.70313 -16.3627 -6.67441
H -1.74146 -17.6045 -6.1215
C -0.585482 -15.8139 -6.43677
H -0.337433 -15.6666 -7.50362
H 0.227336 -16.3449 -6.12906
C -0.189554 -14.4386 -5.63868
H -0.398981 -14.4545 -4.56849
H -1.01132 -13.8471 -6.174
C 1.28046 -14.1443 -6.05976
H 1.95996 -15.0066 -5.95791
H 1.63401 -13.3485 -5.41836
C 1.22973 -13.5052 -7.42582
H 0.443178 -12.8046 -7.61407
H 0.776045 -14.1534 -8.16665
C 2.59763 -13.0082 -7.9774
H 3.2691 -13.852 -7.91332
H 2.88393 -12.2456 -7.20507
C 2.54183 -12.2955 -9.36484
H 2.09607 -13.0503 -10.0696
H 3.58317 -12.2951 -9.68853
C 1.78728 -10.9268 -9.56152
H 2.08509 -10.1775 -8.94288
H 0.79156 -11.1896 -9.18463
C 1.6788 -10.4338 -11.0232
H 2.63315 -10.4962 -11.4755
H 1.68146 -9.33961 -10.7728
C 0.401788 -10.7383 -11.807
H -0.0145447 -9.7766 -12.112
H -0.330522 -11.1263 -11.1998
C 0.68103 -11.6151 -13.0377
H 1.59657 -11.307 -13.6577
H -0.263501 -11.3974 -13.6096
C 0.813874 -13.0933 -12.7269
H 0.437575 -13.2623 -11.713
H 1.83439 -13.424 -12.3889
C 0.43458 -14.1005 -13.8032
H 1.2702 -14.8705 -13.805
H 0.509412 -13.4681 -14.7484
C -0.680804 -14.9944 -13.4792
H -1.58112 -14.4652 -13.7657
H -0.624799 -15.1788 -12.4428
C -0.575021 -16.2298 -14.3025
H 0.357334 -16.6472 -14.1491
H -0.79308 -16.0148 -15.3476
C -1.57366 -17.3152 -14.0281
H -2.64637 -17.0176 -14.005
H -1.597 -17.3268 -12.9547
C -1.2448 -18.6017 -14.6921
H -0.202984 -18.9415 -14.6653
H -1.53055 -18.498 -15.749
C -2.08706 -19.8544 -14.2079
H -3.08327 -19.4856 -14.4106
H -1.95621 -20.1505 -13.1909
C -1.9852 30.1915 -15.1583
H -1.2207 29.6822 -14.7322
H -1.68073 30.4842 -16.164
C -3.35459 29.4807 -15.3761
H -4.19938 30.0319 -15.6172
H -3.7547 28.8881 -14.5239
C -3.36223 28.3046 -16.3428
H -4.028 27.5647 -15.9642
H -2.40083 27.7842 -16.2241
C -3.62364 28.7445 -17.8195
H -3.2933 27.9477 -18.5676
H -2.90443 29.564 -17.9605
C -5.01077 29.1283 -18.2538
H -5.01595 29.1497 31.9245
H -5.30482 30.0982 -17.6335
C -6.1426 28.0059 -18.0112
H -5.57753 27.0032 -18.213
H -6.9816 28.1157 -18.7486
C -6.71442 28.052 -16.6153
H -5.82291 27.9954 -15.9802
H -7.18211 27.1463 -16.3297
C -7.6733 29.218 -16.4516
H -8.03064 29.5325 -17.3528
H -7.12741 30.1518 -16.4291
C -8.90644 29.183 -15.4644
H -9.5494 28.4164 -15.8886
H -9.4421 30.1393 -15.4251
C -8.34048 28.6863 -14.0838
H -8.14646 27.6255 -13.9727
H -9.2666 28.9795 -13.5079
C -7.33021 29.5399 -13.4505
H -7.83435 30.458 -13.561
H -6.52343 29.3842 -14.1125
C -6.93762 29.1378 -11.9803
H -6.36198 30.0501 -11.7363
H -6.33706 28.2184 -12.0113
C -8.05353 28.9817 -10.9199
H -8.75442 28.1547 -11.1895
H -8.4555 29.9613 -10.892
C -7.55752 28.742 -9.56104
H -6.84092 29.4312 -9.156
H -6.97276 27.8061 -9.56306
C -8.75888 28.6207 -8.61823
H -9.32713 27.7354 -8.75353
H -9.38592 29.5868 -8.54195
H -8.39659 28.5935 -7.63567
C 9.11001 -18.2243 -1.63468
H 8.98687 -18.8178 -2.50992
H 9.54093 -18.9616 -0.946144
H 8.21034 -17.9027 -1.17867
C 9.78225 -16.9056 -1.81379
H 10.9135 -16.8874 -1.93486
H 9.77946 -16.2324 -0.917296
C 9.01312 -16.1009 -2.81613
H 8.86258 -15.1428 -2.59251
H 7.89193 -16.4689 -2.86264
C 9.51041 -16.0916 -4.34334
H 9.3698 -17.1925 -4.57459
H 10.5572 -15.712 -4.39509
C 8.60793 -15.3169 -5.24312
H 7.62107 -15.7469 -5.27667
H 8.86558 -15.3247 -6.26786
C 8.45383 -13.7794 -4.78189
H 9.40116 -13.3971 -4.3235
H 7.60549 -13.7508 -4.10584
C 8.09685 -12.91 -5.93368
H 7.42186 -13.4247 -6.60417
H 9.01614 -12.7012 -6.46585
C 7.25809 -11.6734 -5.57477
H 7.74332 -11.1553 -4.73868
H 6.27092 -12.016 -5.28364
C 7.06795 -10.9051 -6.89214
H 6.09771 -10.3094 -7.01617
H 6.90413 -11.572 -7.77814
C 8.20125 -9.93308 -7.26586
H 9.04538 -10.4881 -7.6947
H 8.6117 -9.50314 -6.31383
C 7.72291 -8.69436 -8.02126
H 6.88582 -8.23713 -7.34557
H 7.23491 -9.16364 -8.84482
C 8.79762 -7.77237 -8.47061
H 8.25405 -7.13937 -9.10799
H 9.57944 -8.23234 -9.15453
C 9.36738 -6.72881 -7.39274
H 10.386 -7.05674 -7.20096
H 8.77799 -6.76129 -6.45665
C 9.18302 -5.31282 -7.80376
H 9.47244 -4.78592 -6.92405
H 8.18621 -5.02509 -7.99021
C 10.0021 -4.79907 -9.06501
H 9.56165 -3.79665 -9.39252
H 9.67223 -5.53649 -9.87898
C 11.5636 -4.63671 -8.82569
H 11.8894 -5.41688 -8.19403
H 11.6128 -3.65072 -8.28825
C 12.303 -4.74036 -10.1088
H 13.0777 -4.04917 -9.79914
H 11.9469 -4.22109 -10.9594
C 13.0505 -6.12303 -10.3443
H 13.776 -6.40285 -9.59993
H 13.8101 -5.76324 -11.0092
C 12.1136 -7.3626 -10.8219
H 11.3816 -7.02647 -11.5651
H 11.4833 -7.84425 -10.0788
C 12.9627 -8.32493 -11.6717
H 13.7493 -8.66094 -11.1039
H 13.2917 -7.74199 -12.4778
C 12.2414 -9.55572 -12.3213
H 11.4478 -9.36691 -13.0382
H 11.6687 -10.1265 -11.5298
C 13.2371 -10.5037 -13.1125
H 13.5993 -9.81159 -13.8942
H 12.6704 -11.2337 -13.7089
C 14.4593 -11.259 -12.4454
H 14.8007 -10.5487 -11.6918
H 15.0688 -11.5612 -13.3543
C 14.0847 -12.5236 -11.652
H 13.5252 -12.2459 -10.6682
H 14.9579 -13.0117 -11.2782
C 13.2635 -13.5 -12.4714
H 13.8848 -13.8388 -13.2503
H 12.3076 -13.0839 -12.7257
C 13.0765 -14.8382 -11.8594
H 12.3155 -15.3404 -12.5345
H 12.5405 -14.9038 -10.8533
C 14.3195 -15.7312 -11.8165
H 15.0377 -15.1843 -11.3843
H 14.555 -15.8424 -12.9395
C 14.2853 -17.0318 -11.1879
H 15.1908 -17.5858 -11.5297
H 13.2976 -17.4789 -11.5237
C 14.1794 -17.071 -9.6713
H 14.2063 -18.0349 -9.04532
H 13.1001 -16.9703 -9.48807
C 14.8276 -15.9487 -8.93105
H 14.2043 -15.6533 -7.97662
H 14.8567 -14.9966 -9.47502
C 16.1463 -16.2041 -8.48231
H 16.591 -16.6742 -9.34705
H 16.2258 -16.911 -7.65199
C 16.9074 -15.0083 -7.94665
H 16.3656 -14.6699 -7.01338
H 16.7765 -14.2855 -8.73006
C 18.3071 -15.2981 -7.62208
H 18.7057 -16.0909 -8.27225
H 18.1542 -15.8162 -6.62313
C 19.2999 -14.0647 -7.55743
H 18.6546 -13.3748 -7.02195
H 19.4788 -13.571 -8.50119
C 20.6072 -14.4312 -6.71601
H 21.3399 -13.6642 -6.88339
H 21.1915 -15.2245 -7.10407
C 20.2921 -14.5066 -5.26618
H 19.8803 -15.468 -5.03189
H 19.2911 -14.1013 -4.86115
C 21.34 -14.178 -4.21474
H 22.0608 -14.9473 -4.17201
H 20.8921 -14.2623 -3.21914
C 21.9931 -12.769 -4.44467
H 21.178 -12.065 -4.75483
H 22.6766 -12.9145 -5.19138
C 22.6481 -12.1002 -3.2635
H 21.8665 -12.1982 -2.5498
H 22.7443 -11.1347 -3.56452
C 23.9994 -12.6707 -2.69315
H 24.7779 -12.4002 -3.38156
H 24.0325 -13.7613 -2.66869
C 24.3118 -12.4082 -1.22727
H 25.1365 -13.0631 -0.852288
H 23.5381 -12.6108 -0.531138
C 24.8316 -11.1112 -0.920617
H 24.1338 -10.3459 -1.26642
H 25.8394 -10.9964 -1.45279
C 24.9816 -10.8665 0.561477
H 25.6442 -11.5804 1.09146
H 24.0871 -10.9185 1.08712
C 25.4624 -9.4212 0.925324
H 24.7177 -8.72039 0.558957
H 26.3047 -9.25943 0.278816
C 25.8984 -9.26585 2.41312
H 26.6472 -10.0486 2.6554
H 25.1022 -9.35835 3.12481
C 26.427 -7.80647 2.7294
H 25.7232 -6.99052 2.96298
H 26.9354 -7.49283 1.77458
C 27.4723 -7.806 3.90102
H 27.9473 -6.83077 3.98735
H 28.2487 -8.52573 3.80485
C 26.7648 -8.10163 5.24388
H 26.3175 -9.10659 5.26754
H 26.0359 -7.39281 5.37816
C 27.7379 -8.01601 6.37314
H 27.1632 -8.14646 7.29594
H 28.0387 -6.95641 6.58573
C 29.0276 -8.87528 6.3488
H 29.628 -8.40004 5.59566
H 28.7834 -9.85674 5.94901
C 29.5605 -9.03604 7.72652
H 28.9004 -9.68817 8.26202
H 29.5155 -8.18607 8.2102
C 31.1085 -9.44994 7.69784
H 31.6201 -8.63827 7.22833
H 31.0371 -10.4194 7.19025
C 31.8138 -9.56164 9.02184
H -18.2876 -9.76812 8.9195
H 31.4791 -10.4725 9.58159
C 31.8321 -8.29147 10.0116
H 30.8312 -7.94265 10.2073
H -18.9663 -7.3805 9.49176
C -18.8761 -8.2866 11.445
H -18.498 -9.25843 11.6437
H 31.5304 -8.18988 12.069
C -17.759 -7.209 11.51
H -18.3072 -6.11672 11.511
H -17.0685 -7.37858 10.6612
C -17.2131 -7.23305 12.8807
H -16.2228 -6.86065 12.935
H -16.9555 -8.11479 13.2451
C -18.0622 -6.65828 13.9838
H -18.659 -7.61297 14.3559