LAMMPS (3 Mar 2020)
OMP_NUM_THREADS environment is not set. Defaulting to 1 thread. (src/comm.cpp:94)
  using 1 OpenMP thread(s) per MPI task
# LAMMPS Input Script created with replicate_polymer_topology
# FF: /home/jramos/Programacion/GITHUB_REPO_DIR/replicate_polymer_topology/forcefields/loplsaa.xml

#======1.Initialization======
units                real
boundary             p p p
dimension            3
atom_style           full

#======2.Force Field terms======
pair_style     hybrid lj/cut/coul/long 10.0 10.0
bond_style     hybrid harmonic
angle_style    hybrid harmonic
dihedral_style hybrid multi/harmonic
#improper_style hybrid harmonic
special_bonds lj 0.0 0.0 0.5 coul 0.0 0.0 0.5

#======3.Data======
read_data ../01-MINIMIZE/restart.data.95.data
  triclinic box = (-18.55 -19.83 -18.55) to (31.701 30.421 31.701) with tilt (0 0 0)
  3 by 4 by 4 MPI processor grid
  reading atoms ...
  12320 atoms
  reading velocities ...
  12320 velocities
  scanning bonds ...
  4 = max bonds/atom
  scanning angles ...
  6 = max angles/atom
  scanning dihedrals ...
  9 = max dihedrals/atom
  reading bonds ...
  12280 bonds
  reading angles ...
  24480 angles
  reading dihedrals ...
  36360 dihedrals
  4 = max # of 1-2 neighbors
  6 = max # of 1-3 neighbors
  12 = max # of 1-4 neighbors
  16 = max # of special neighbors
  special bonds CPU = 0.00251769 secs
  read_data CPU = 0.128387 secs

#======4.Modify Pairs======
pair_modify mix geometric tail yes
kspace_style pppm 1e-6
kspace_modify gewald 0.1


timestep 1.0
#run_style respa 2 5 bond 1 angle 1 dihedral 1 improper 1 pair 2

#======5.Settings======
neigh_modify every 10 delay 20 check yes
thermo         10000
thermo_style custom step cpu ebond eangle edihed eimp epair evdwl ecoul elong etail pe temp press lx ly lz density
dump       1 all dcd   10000  dump.dcd
dump       2 all xyz   10000  dump_last.xyz
dump       3 all atom  10000  dump_last.atom
dump       4 all xtc   10000  dump.xtc
restart    5000000 restart.data

#======6.Minimization simulation======
#run 0
#minimize 1.0e-8 1.0e-10 10000 10000

#======6.NVT simulation======
#fix 1 all shake 0.0001 5 0 m 1.0
#fix 2 all nvt temp 500 500 100.0 drag 0.1
#fix 3 all temp/csvr 500 500 500 54324  # Equivalent to v-rescale Gromacs
#run 2500000

#======6.NPT simulation======
#fix 1 all shake 0.0001 5 0 m 1.0
fix 2 all npt temp 500 500 100.0 iso 1.0 1.0 1000.0 drag 1.0
fix 3 all temp/csvr 500 500 500 54324  # Equivalent to v-rescale Gromacs
run 5000000
PPPM initialization ...
  using 12-bit tables for long-range coulomb (src/kspace.cpp:332)
  G vector (1/distance) = 0.1
  grid = 15 15 15
  stencil order = 5
  estimated absolute RMS force accuracy = 0.267081
  estimated relative force accuracy = 0.000804306
  using double precision FFTW3
  3d grid and FFT values/proc = 1000 90
Neighbor list info ...
  update every 10 steps, delay 20 steps, check yes
  max neighbors/atom: 2000, page size: 100000
  master list distance cutoff = 12
  ghost atom cutoff = 12
  binsize = 6, bins = 9 9 9
  1 neighbor lists, perpetual/occasional/extra = 1 0 0
  (1) pair lj/cut/coul/long, perpetual
      attributes: half, newton on
      pair build: half/bin/newton/tri
      stencil: half/bin/3d/newton/tri
      bin: standard
Per MPI rank memory allocation (min/avg/max) = 15.1 | 15.15 | 15.5 Mbytes
Step CPU E_bond E_angle E_dihed E_impro E_pair E_vdwl E_coul E_long E_tail PotEng Temp Press Lx Ly Lz Density 
       0            0    101.09682    820.02171    1076.2954            0   -3256.6254   -4188.0737    3491.9558   -2560.5075   -286.27104   -1259.2115            0   -2758.3596       50.251       50.251       50.251    0.7499669 
   10000    22.913838    6325.1165    10019.945    2576.6648            0   -918.22287   -1921.1366    3563.1227    -2560.209   -243.79805    18003.503    503.07452   -69.244469     53.01439     53.01439     53.01439   0.63869704 
   20000    47.024797    6342.5908    10236.908    2493.9639            0   -1534.6724    -2469.185     3494.783   -2560.2704   -267.19718    17538.791    505.54128    1301.3201    51.419347    51.419347    51.419347    0.6999976 
   30000    71.360368    6489.5208    10239.392    2489.5176            0    -1560.042   -2464.1623    3464.3701   -2560.2499   -268.60752    17658.388    498.43252    71.197358    51.329196    51.329196    51.329196   0.70369238 
   40000    95.564567    6344.5188    10291.492    2488.8295            0   -1542.3141   -2498.5268    3516.5289   -2560.3162   -269.12836    17582.526    497.16028   -29.053049    51.296062    51.296062    51.296062   0.70505687 
   50000    119.80918    6395.3764    10090.206    2457.0691            0   -1643.6889   -2597.6803    3514.1313   -2560.1399   -272.17677    17298.962    504.70972   -394.21224    51.103836    51.103836    51.103836   0.71304301 
   60000    144.47522    6528.0637     10171.19    2478.6154            0   -1614.3275   -2551.9953    3497.9561   -2560.2883   -271.22514    17563.542    498.26814   -836.15718    51.163534    51.163534    51.163534   0.71054996 
   70000    169.12973    6382.2869      10335.6    2473.8355            0   -1554.0212   -2502.7324    3508.9634   -2560.2523   -267.06452    17637.701    498.42093     175.3954     51.42786     51.42786     51.42786   0.69965005 
   80000    194.07522    6294.8797     10190.84    2484.4657            0   -1612.2515   -2533.5669    3481.5464    -2560.231   -271.11358    17357.933    501.27898   -44.560459    51.170551    51.170551    51.170551   0.71025769 
   90000    218.83828    6394.3933    10174.718     2481.528            0   -1497.2779   -2436.5673    3499.3748   -2560.0854   -266.51016    17553.361    499.87757   -434.51053    51.463493    51.463493    51.463493   0.69819775 
  100000    243.42084    6272.4907    10287.182    2508.3687            0   -1566.2392   -2506.5701     3500.586    -2560.255   -273.10495    17501.802    501.20682    1249.7964    51.045876    51.045876    51.045876   0.71547465 
  110000    268.08181    6557.6915    10059.376    2453.1066            0   -1626.3742   -2565.7498    3499.6846    -2560.309   -270.50488      17443.8    502.52012   -145.91516    51.208904    51.208904    51.208904   0.70866304 
  120000    292.66676    6454.8229    10164.458    2516.7169            0   -1584.7095   -2511.6422    3487.1768   -2560.2441   -272.13948    17551.289    500.52928   -126.01455     51.10617     51.10617     51.10617   0.71294532 
  130000     317.0588    6609.1054    10045.847    2482.5439            0   -1612.9956   -2578.0178    3525.3038   -2560.2816   -270.70811    17524.501    500.48494  -0.61376979    51.196086    51.196086    51.196086   0.70919546 
  140000    341.75927    6408.5742    10175.534    2421.6638            0   -1583.1851   -2479.4516    3456.5148   -2560.2484   -268.75585    17422.586    500.15661    569.61285    51.319751    51.319751    51.319751   0.70408097 
  150000    366.31677    6322.3309    10172.933    2437.9657            0   -1619.4953   -2560.5371    3501.3064   -2560.2645   -271.51896    17313.734    503.51883    756.06873    51.145072    51.145072    51.145072   0.71131971 
  160000    390.96316    6413.9264    10099.481     2449.099            0   -1610.8754   -2538.4019     3487.816   -2560.2895    -270.4758    17351.631    500.58766   -253.00798    51.210739    51.210739    51.210739   0.70858686 
  170000     415.4688    6501.5126    10134.434    2482.9747            0    -1588.077    -2521.265    3493.5089   -2560.3209   -271.61583    17530.845    496.86426    72.253784    51.138991    51.138991    51.138991   0.71157348 
  180000    440.09566     6447.029    10126.164    2495.4706            0   -1614.1317   -2577.8395    3523.9551   -2560.2473   -272.08747    17454.532    495.57862    456.75555    51.109426    51.109426    51.109426   0.71280907 
  190000    464.78239    6378.0396     10210.98    2486.9836            0   -1536.7291   -2487.1915    3510.7697   -2560.3074   -269.87511    17539.274    493.78378   -303.48125    51.248706    51.248706    51.248706   0.70701318 
  200000    489.34492    6400.2243    10093.754    2496.4079            0   -1479.3591   -2415.1839    3496.1207   -2560.2959   -266.35536    17511.027    499.47765    35.559654    51.473461    51.473461    51.473461   0.69779222 
  210000    513.73941    6528.4364    10210.547    2559.3938            0   -1509.0281   -2470.7601    3521.9302   -2560.1982   -268.89237    17789.349    493.21678   -319.46954    51.311064    51.311064    51.311064   0.70443862 
  220000    538.10923    6635.0477     10047.87    2486.9205            0   -1612.0632   -2529.7994    3477.9194   -2560.1833   -270.84451    17557.775    495.49057   -522.15485    51.187491    51.187491    51.187491   0.70955278 
  230000    562.69993    6339.9667    10211.258    2500.1697            0   -1515.4375   -2469.5089    3514.4163   -2560.3449   -267.60268    17535.957    501.81349    886.13824    51.393362    51.393362    51.393362   0.70105991 
  240000    587.13822    6391.2216    10337.822    2507.4488            0   -1672.8153   -2568.2415    3455.6588   -2560.2327   -270.16657    17563.677    497.73226   -24.605344     51.23027     51.23027     51.23027   0.70777673 
  250000    611.89236    6399.0078     10274.31    2468.7123            0   -1595.0338   -2574.0976    3539.3367   -2560.2729   -272.11386    17546.996    498.32034   -1079.6846    51.107773    51.107773    51.107773   0.71287821 
  260000    636.58555    6512.2055    10102.003    2499.7671            0   -1608.3028    -2556.713    3508.6825   -2560.2724   -271.12574    17505.673    502.65958   -597.76916    51.169786    51.169786    51.169786   0.71028956 
  270000    661.20377     6466.502    10035.549    2489.7849            0   -1540.9755   -2529.1559    3548.3919   -2560.2115   -270.22034     17450.86    503.47037    771.90082    51.226872    51.226872    51.226872   0.70791761 
  280000    686.10725    6392.9736    9902.1214    2501.7494            0   -1475.2582   -2458.6799    3543.6751   -2560.2534   -266.66687    17321.586    507.40226    587.18739     51.45341     51.45341     51.45341   0.69860829 
  290000    710.79921    6289.1394    10214.418    2493.2736            0   -1616.1625   -2561.0302    3504.9859   -2560.1182   -270.24868    17380.668    501.89166    475.51216    51.225081    51.225081    51.225081   0.70799184 
  300000    735.37871    6394.4459    10280.892    2464.0937            0   -1530.1291   -2522.1526    3552.2747   -2560.2512   -271.03551    17609.303    499.59491    589.47002    51.175464    51.175464    51.175464   0.71005316 
  310000    760.18101    6481.0529    10244.727    2507.1345            0    -1541.417   -2502.5456     3521.364   -2560.2354   -271.35981    17691.497    496.76995    743.20457    51.155069    51.155069    51.155069   0.71090276 
  320000    784.61995    6349.7208    10037.187    2418.2845            0   -1609.8839   -2536.2638    3486.7888   -2560.4089   -271.05304    17195.308    502.55969     821.6883     51.17436     51.17436     51.17436   0.71009908 
  330000       809.08    6439.5597    10277.876    2486.6408            0   -1596.9065   -2541.2439    3504.5804    -2560.243   -271.45176     17607.17    500.34025   -318.51265    51.149292    51.149292    51.149292   0.71114365 
  340000    833.54831    6504.4282    10115.708     2428.554            0    -1687.185    -2641.373    3514.4905   -2560.3025   -276.38559    17361.505    501.30874    424.39828    50.843103    50.843103    50.843103    0.7240692 
  350000    857.98421    6480.5897     10202.28    2392.7588            0   -1548.0697   -2526.8897    3539.0737   -2560.2538   -270.36556    17527.559    501.54983   -928.14616    51.217699    51.217699    51.217699   0.70829805 
  360000    882.60388    6566.6017    10139.752    2492.1629            0   -1561.1495   -2542.0493    3541.2021   -2560.3023   -271.06936    17637.367    499.86455   -403.30113    51.173333    51.173333    51.173333   0.71014185 
  370000    907.37378    6426.1872    10108.676    2441.4389            0   -1616.1922   -2583.1415    3527.2403    -2560.291   -270.92991     17360.11     502.4631    93.292263    51.182112    51.182112    51.182112   0.70977652 
  380000    931.74614    6494.8364    10088.856     2402.145            0   -1597.8845   -2574.9005    3537.3051    -2560.289   -273.05692    17387.953    500.99264   -130.25895    51.048869    51.048869    51.048869   0.71534881 
  390000    956.52023    6351.6379    10122.636    2419.2856            0   -1516.6547   -2462.5402    3506.1568   -2560.2713   -267.87804    17376.905    498.73429    26.207964    51.375746    51.375746    51.375746   0.70178131 
  400000    980.95505    6475.9408    10006.988    2519.4124            0   -1539.1116   -2456.4536    3477.6327   -2560.2908   -270.90478    17463.229    499.86463   -89.672142    51.183694    51.183694    51.183694   0.70971069 
  410000    1005.4604    6308.4578    10066.819    2547.0118            0   -1522.0253   -2483.8953    3522.2458   -2560.3758   -272.21749    17400.263    504.22927    404.79786    51.101288    51.101288    51.101288   0.71314968 
  420000    1029.9138     6484.168    9957.9459    2454.4354            0    -1660.307   -2596.3556    3496.3928   -2560.3442   -273.67574    17236.242    500.28049   -368.51305    51.010363    51.010363    51.010363   0.71696999 
  430000    1054.4461    6295.8889    10072.081    2433.6581            0   -1659.1117   -2601.5398     3502.773    -2560.345   -271.14138    17142.517    505.72036    83.213311    51.168802    51.168802    51.168802   0.71033053 
  440000    1078.8632    6496.0114    10150.994    2520.8871            0    -1620.716   -2532.9029    3472.4437   -2560.2568   -271.07628    17547.177    501.14571   -891.00495    51.172898    51.172898    51.172898   0.71015998 
  450000    1103.6109    6397.5854    9962.3026    2507.5711            0   -1601.0682    -2559.564    3518.7934   -2560.2976   -271.06197    17266.391    505.14423   -192.32752    51.173798    51.173798    51.173798    0.7101225 
  460000    1128.4975    6469.2788    10189.125    2482.2834            0   -1480.1654   -2433.3039    3513.4343   -2560.2959   -269.82536    17660.522    498.84434   -539.03905    51.251856    51.251856    51.251856   0.70688284 
  470000    1153.0448    6385.8243    10119.863    2430.4676            0   -1623.6617   -2575.8031    3512.4598   -2560.3184    -273.1326    17312.493    501.45721    75.725516    51.044153    51.044153    51.044153   0.71554707 
  480000    1177.7923    6504.8942     10155.08    2448.3425            0   -1619.5924   -2565.1579    3505.8367   -2560.2712    -271.9921    17488.725    500.71087   -601.94395    51.115399    51.115399    51.115399   0.71255923 
  490000    1202.3723    6469.2526    10049.015    2452.0489            0   -1630.1092   -2577.3324    3507.6062    -2560.383   -270.92852    17340.208    501.34012   -485.55905    51.182199    51.182199    51.182199   0.70977288 
  500000     1227.001    6332.1374    10194.992    2488.6861            0   -1591.2474   -2558.3102    3527.3118    -2560.249   -271.44161    17424.568    498.38242    794.88286     51.14993     51.14993     51.14993   0.71111706 
  510000    1251.3897    6366.2692    10259.994    2509.0675            0   -1524.9983   -2511.8023    3547.1229   -2560.3189   -271.43743    17610.332    497.24003    150.96183    51.150192    51.150192    51.150192   0.71110612 
  520000    1276.0858     6390.665    10230.903    2500.9774            0   -1438.3249   -2373.9733     3495.805   -2560.1566   -265.49861     17684.22    498.23112    402.42656    51.528769    51.528769    51.528769   0.69554771 
  530000    1300.6768    6357.7614    10214.773    2473.8321            0   -1606.2159    -2534.632    3488.6968   -2560.2806   -272.52937     17440.15    499.74716    322.28249    51.081786    51.081786    51.081786   0.71396676 
  540000    1324.9565    6557.0681    10043.233    2570.4171            0   -1499.9927   -2485.1366    3545.4349   -2560.2911   -270.35115    17670.726    497.46086   -172.77095    51.218609    51.218609    51.218609   0.70826029 
  550000    1349.8409    6411.8321    10260.982    2565.2853            0   -1608.8064   -2557.3854    3508.8139   -2560.2349   -271.34638    17629.293    497.43929    441.86184    51.155913    51.155913    51.155913   0.71086759 
  560000    1374.7797    6366.0693    10151.239    2512.2265            0   -1575.7908   -2555.0969    3539.6054   -2560.2993   -267.85758    17453.744    501.06905    238.08974    51.377055    51.377055    51.377055   0.70172769 
  570000    1402.8149    6365.9755    10048.702    2565.3989            0    -1638.104   -2552.3189    3474.4991   -2560.2843   -271.99837    17341.973    498.71006   -314.65549    51.115006    51.115006    51.115006   0.71257564 
  580000    1427.4707     6429.452    10288.497    2466.7157            0   -1578.9838   -2536.1549    3517.4018   -2560.2307    -271.5385    17605.681    496.36058   -1483.2247    51.143845    51.143845    51.143845   0.71137089 
  590000    1452.1534    6488.5773    10068.783    2552.1638            0   -1509.0326   -2490.2526    3541.4987   -2560.2786   -270.06305    17600.491    494.91737   -321.91806    51.236815    51.236815    51.236815   0.70750555 
  600000    1476.6686    6560.9177    10039.882    2430.8021            0   -1511.3236   -2468.2667    3517.2708   -2560.3277   -268.68275    17520.278    496.52652    408.91873    51.324404    51.324404    51.324404   0.70388947 
  610000    1501.1161    6466.5231    10029.602     2417.104            0   -1535.9034   -2491.6581    3516.0705   -2560.3158   -268.68879    17377.325     501.1421   -414.03873     51.32402     51.32402     51.32402    0.7039053 
  620000    1525.7719    6321.2957    10117.331    2458.8944            0   -1451.9792   -2405.3533    3513.6424   -2560.2684   -266.63137    17445.542    499.86068    1091.7934    51.455693    51.455693    51.455693   0.69851531 
  630000    1550.1903    6432.4649    10038.784    2511.8029            0   -1492.9353   -2409.1929    3476.5776     -2560.32   -268.15528    17490.117    495.80379   -233.64025    51.358035    51.358035    51.358035    0.7025076 
  640000    1574.8855    6414.1439    10142.605    2569.5912            0   -1589.8214      -2558.6    3529.1128   -2560.3342    -272.4241    17536.519    496.70169    493.83854    51.088366    51.088366    51.088366   0.71369096 
  650000     1599.443     6389.032    10118.005    2437.8968            0   -1635.7087   -2549.9447    3474.4517   -2560.2157    -270.0857    17309.225    503.38567   -529.20086    51.235383    51.235383    51.235383   0.70756488 
  660000    1624.3541     6466.935    10211.145    2476.1435            0   -1715.6764   -2655.7422    3500.4188    -2560.353   -274.91528    17438.547    497.27481    128.77367    50.933582    50.933582    50.933582   0.72021732 
  670000    1649.1242    6413.0676    10060.145    2457.6372            0   -1577.4741   -2545.7994    3528.6516   -2560.3263   -270.18527    17353.376    499.27123    514.32708    51.229088    51.229088    51.229088   0.70782574 
  680000    1674.1204    6313.2373    10235.073     2422.966            0   -1559.2632   -2515.7585    3516.6933    -2560.198   -271.97575    17412.013    500.25035     548.6247    51.116423    51.116423    51.116423    0.7125164 
  690000    1698.8553    6475.7522    9994.9278    2458.8745            0   -1568.5092   -2510.5536    3502.2289   -2560.1844   -268.36595    17361.045    500.37045   -642.35034    51.344592    51.344592    51.344592   0.70305952 
  700000    1723.4742    6420.3156    10191.365    2442.8765            0   -1573.7635   -2522.3027    3508.8111   -2560.2719   -269.68597    17480.793    498.77002    723.10104    51.260684    51.260684    51.260684   0.70651769 
  710000    1748.1124    6439.1253     10245.86    2466.0741            0   -1546.6589   -2544.6658    3558.1988   -2560.1919    -270.2274      17604.4    497.45037   -494.79444    51.226426    51.226426    51.226426   0.70793609 
  720000     1772.776    6359.7613    10063.418    2413.4151            0   -1544.7159   -2519.0731    3534.5852    -2560.228   -271.79508    17291.878    501.69986    861.92209    51.127747    51.127747    51.127747   0.71204308 
  730000    1797.4203    6384.0395    10040.475    2463.4618            0   -1618.4555   -2566.7191    3508.5754   -2560.3118   -273.19784    17269.521    504.96726    277.49383     51.04009     51.04009     51.04009     0.715718 
  740000    1821.9904    6570.9469    9928.4241      2530.26            0   -1565.0963   -2494.4415    3489.5764   -2560.2312   -271.07157    17464.535    502.35002     378.5279    51.173194    51.173194    51.173194   0.71014764 
  750000    1846.5808    6423.8358    10232.809      2402.37            0   -1680.4614   -2619.5333    3499.3485   -2560.2766   -272.57473    17378.553    502.38583   -109.91722    51.078953    51.078953    51.078953    0.7140856 
  760000      1871.31    6471.3778    10305.425    2500.0039            0   -1583.4526   -2518.9461    3495.7006   -2560.2072   -271.82321    17693.354    496.55172   -76.875308    51.125983    51.125983    51.125983   0.71211678 
  770000     1896.146    6370.1489    10196.814    2425.2236            0   -1658.0213   -2592.6677    3494.8763   -2560.2299   -270.66205    17334.165    501.50251   -330.36589     51.19899     51.19899     51.19899   0.70907478 
  780000    1920.7908    6352.2959    10155.708    2491.4812            0   -1651.5911   -2548.8214    3457.4979   -2560.2676   -270.39609    17347.894    502.72204   -444.37755    51.215771    51.215771    51.215771   0.70837802 
  790000    1945.4704    6419.7935    10105.003    2452.8316            0   -1694.0318   -2623.9826    3490.1711   -2560.2203   -273.61372    17283.597    501.93081   -566.80612    51.014217    51.014217    51.014217   0.71680752 
  800000    1970.1961    6292.9714     10085.51    2505.2063            0   -1520.5855   -2455.4492    3495.1414   -2560.2777   -271.74707    17363.102    503.55723    735.09713    51.130757    51.130757    51.130757    0.7119173 
  810000    1994.9373    6413.2023    10037.632    2420.0076            0   -1555.9644   -2518.9662    3523.2453   -2560.2435   -272.77253    17314.878    500.55596   -160.93356    51.066603    51.066603    51.066603   0.71460379 
  820000    2019.5632    6416.4681     10072.76     2491.025            0   -1614.5614   -2526.6766    3472.4199   -2560.3047   -271.82184    17365.692    501.36858    -500.7883    51.126069    51.126069    51.126069   0.71211318 
  830000    2044.1726    6530.7287    10066.342    2438.2314            0   -1645.4703   -2573.8153    3488.5992   -2560.2542   -272.26863    17389.831    502.48729   -655.81846    51.098088    51.098088    51.098088   0.71328366 
  840000    2068.8714    6360.0105    10196.823    2420.9504            0   -1607.1523   -2604.5372    3557.5812   -2560.1963   -270.70627    17370.632    502.36137    338.55624    51.196202    51.196202    51.196202   0.70919063 
  850000    2093.7553    6455.5515    10164.027    2425.1848            0   -1540.7104   -2555.3783    3574.9899    -2560.322   -271.87682    17504.053    500.31782   -395.29348    51.122623    51.122623    51.122623    0.7122572 
  860000    2118.4292    6429.0935    10137.919    2507.9673            0   -1622.9593    -2587.761    3525.0237   -2560.2221   -270.21621    17452.021    502.58276   -609.55121    51.227133    51.227133    51.227133   0.70790678 
  870000     2143.174    6419.8448    10036.688    2525.3491            0   -1590.7005   -2519.4572    3489.0017   -2560.2451    -269.9395    17391.181     500.8592    464.97073    51.244631    51.244631    51.244631   0.70718188 
  880000    2168.0981    6408.9224    10166.372    2452.1662            0   -1623.3983   -2575.4361    3512.2607   -2560.2229    -271.9884    17404.062    502.09534    490.96395    51.115631    51.115631    51.115631   0.71254952 
  890000    2192.8882    6411.0236    10206.447    2487.6636            0   -1738.1637   -2657.1073    3479.1385   -2560.1949   -277.02966     17366.97    500.51351    493.38379    50.803671    50.803671    50.803671   0.72575651 
  900000    2217.4855     6370.243    10283.035     2466.955            0   -1591.3832   -2577.6454    3546.6007   -2560.3385   -270.67981     17528.85     497.5332   -1166.6124     51.19787     51.19787     51.19787   0.70912131 
  910000     2242.211    6396.9306    10134.089    2400.5849            0   -1668.6881   -2640.6362    3532.1623   -2560.2142   -274.53863    17262.916    501.15095    1238.8787    50.956864    50.956864    50.956864   0.71923058 
  920000     2267.278    6530.8531    9893.5775    2427.3161            0   -1623.1748   -2575.9854    3513.1805   -2560.3698   -273.68029    17228.572      502.612   -242.98771    51.010081    51.010081    51.010081    0.7169819 
  930000    2292.0077    6366.5838    10242.286    2434.8209            0   -1711.1023   -2667.6186    3516.9223    -2560.406   -277.47812    17332.588    501.81133    161.50329    50.776287    50.776287    50.776287   0.72693138 
  940000    2316.8684    6461.1726    10086.691     2469.584            0   -1690.7045   -2590.5978    3460.1542   -2560.2608   -275.56435    17326.743     500.4203    87.355526    50.893561    50.893561    50.893561   0.72191772 
  950000    2341.6288     6427.187    10089.715    2408.2482            0   -1626.7876   -2563.0408    3496.5865   -2560.3333   -273.61191    17298.363    500.67203    133.96567     51.01433     51.01433     51.01433   0.71680277 
  960000    2366.6598    6260.9334    10149.862    2405.9478            0   -1734.2837   -2691.7808    3517.7719   -2560.2748   -275.03124     17082.46    503.95667   -20.506932    50.926423    50.926423    50.926423    0.7205211 
  970000     2391.611    6499.5696    9928.7614    2437.1094            0   -1631.0885   -2563.5956    3492.7645   -2560.2573   -272.51365    17234.352    498.37113     227.8447    51.082769    51.082769    51.082769   0.71392556 
  980000    2416.3927    6445.9541    10140.171    2417.9989            0   -1677.5164   -2611.5963    3494.2483   -2560.1684   -273.64322    17326.608    502.40751   -1672.5293    51.012384    51.012384    51.012384   0.71688478 
  990000    2441.3844    6432.2894    9929.6512    2403.3706            0   -1541.7386   -2506.6386     3525.069    -2560.169   -270.25414    17223.573    505.51062   -206.44187    51.224736    51.224736    51.224736   0.70800616 
 1000000    2466.3892    6375.4303    10213.291    2462.0318            0   -1668.6546   -2615.0495    3506.7432   -2560.3483   -273.95477    17382.098    499.93209    809.69219    50.993039    50.993039    50.993039   0.71770099 
 1010000    2491.2035    6221.0835    10169.062    2472.7492            0   -1669.8712   -2622.0401    3512.4829    -2560.314   -272.10537    17193.024    505.73474    68.261874    51.108305    51.108305    51.108305   0.71285598 
 1020000    2515.8061     6438.021    10116.798    2499.6043            0   -1506.5296   -2472.0705    3525.7846   -2560.2437   -267.40159    17547.893    500.33216     785.5125    51.406242    51.406242    51.406242   0.70053311 
 1030000    2540.4671    6378.2129    10132.147    2460.9728            0   -1629.4521   -2551.0925    3481.9354   -2560.2951   -270.06589    17341.881    502.04954   -987.46847    51.236636    51.236636    51.236636   0.70751297 
 1040000    2565.1543    6298.3919    10090.024    2519.2951            0   -1515.9433   -2471.9329    3516.3014   -2560.3118   -268.19384    17391.768    506.22044    200.61562    51.355573    51.355573    51.355573   0.70260862 
 1050000    2589.7665    6354.2181    10129.202     2446.804            0   -1545.9649   -2511.6643     3525.955   -2560.2557   -271.68304    17384.259    498.56727    394.57168    51.134774    51.134774    51.134774   0.71174955 
 1060000    2614.3545    6408.6894    10098.994    2495.0741            0   -1536.5567   -2467.9134    3491.6177    -2560.261   -272.06863    17466.201     496.9822   -531.66116    51.110605    51.110605    51.110605   0.71275973 
 1070000    2639.2481     6462.901    10170.573    2475.8949            0   -1556.0873   -2511.2507    3515.4358   -2560.2725   -271.45752    17553.281    501.95792    689.67959    51.148931    51.148931    51.148931   0.71115874 
 1080000    2664.2385    6549.2068    9955.1265    2475.8285            0   -1679.7538    -2605.785    3486.2916   -2560.2604   -273.05298    17300.408    501.17565      43.0405    51.049114    51.049114    51.049114   0.71533851 
 1090000    2688.7653    6555.6796     9970.094    2413.9701            0   -1804.7836   -2724.6202    3480.1293   -2560.2927   -276.65466     17134.96    502.91137   -1023.7158    50.826615    50.826615    50.826615    0.7247741 
 1100000    2713.6399    6370.2313    10112.457    2419.8376            0   -1577.4146   -2563.2081    3546.1765    -2560.383   -273.04582    17325.111    500.61258   -168.76872     51.04956     51.04956     51.04956   0.71531975 
 1110000    2738.3705    6358.6551    10208.011    2472.9075            0   -1606.3554   -2551.9447    3505.9589   -2560.3696   -275.46873    17433.218    500.38301   -96.674998    50.899449    50.899449    50.899449   0.72166722 
 1120000    2762.8731    6430.5903    10023.145    2510.5062            0   -1549.1473   -2487.2247    3498.3166   -2560.2393   -272.28332    17415.094     500.6684    560.49591    51.097168    51.097168    51.097168   0.71332217 
 1130000    2787.5148     6469.244     10104.62    2490.3292            0   -1639.2616   -2602.1422    3523.1436    -2560.263   -272.45297    17424.931    501.85318   -470.09347    51.086561    51.086561    51.086561    0.7137666 
 1140000    2812.2975    6489.2376    9975.1399    2417.3933            0   -1603.1406   -2566.2343    3523.3418   -2560.2481   -270.81074     17278.63    503.81137    -385.7967    51.189618    51.189618    51.189618   0.70946432 
 1150000    2836.9606    6366.0179    10127.848    2430.7633            0   -1587.9792   -2535.8161    3508.1383   -2560.3014   -270.49896     17336.65    499.58098    19.242266    51.209278    51.209278    51.209278   0.70864753 
 1160000    2861.9187    6356.9513    10237.444    2432.8871            0   -1643.8809    -2593.755       3510.1   -2560.2259   -276.51174    17383.402    502.42233    353.35415     50.83537     50.83537     50.83537   0.72439968 
 1170000    2886.6598    6514.1862    10065.813    2498.5584            0   -1554.5432    -2465.155     3470.833   -2560.2213    -271.2683    17524.014    498.99024    732.47476     51.16082     51.16082     51.16082   0.71066303 
 1180000    2911.0679    6413.2023    10193.931    2443.5998            0   -1568.9599   -2514.0881    3505.4543   -2560.3262   -268.66182    17481.773    498.11727    165.05547    51.325737    51.325737    51.325737   0.70383463 
 1190000    2935.4942    6356.9089    9793.4145    2578.8782            0   -1542.9009   -2503.7597    3521.1586   -2560.2998   -271.12007    17186.301    506.40165    522.23557    51.170143    51.170143    51.170143   0.71027469 
 1200000    2960.2214    6431.0277    10260.649    2475.4041            0   -1606.2432   -2543.8951    3497.9631   -2560.3112   -273.07494    17560.838     498.2293    498.07783    51.047745    51.047745    51.047745   0.71539603 
 1210000    2984.8175    6447.6039    10129.192    2458.7998            0   -1505.8466   -2501.9757    3556.4247   -2560.2956   -269.90347    17529.749    498.40432    806.26683    51.246911    51.246911    51.246911   0.70708748 
 1220000    3009.7017    6517.8232    10131.854    2443.6439            0   -1535.9933   -2548.0824    3572.2951    -2560.206   -268.11605    17557.327    499.77848   -350.89965     51.36054     51.36054     51.36054   0.70240482 
 1230000    3034.2826    6380.4142     10147.99    2470.4546            0   -1671.2073   -2604.5338    3493.5871   -2560.2607   -271.67325    17327.652    500.62014    434.80123    51.135388    51.135388    51.135388    0.7117239 
 1240000    3059.0153    6365.5233    10220.269    2450.1776            0   -1526.3011   -2462.9069    3496.8495   -2560.2437   -272.98878    17509.669    496.61053    958.99216    51.053116    51.053116    51.053116    0.7151703 
 1250000      3083.78    6523.4113    10095.685    2406.3094            0    -1641.197   -2646.5735    3565.7231   -2560.3467   -277.68903    17384.209    496.19854   -799.61799    50.763428    50.763428    50.763428   0.72748392 
 1260000     3108.591    6467.3789    10123.327    2392.0642            0   -1658.0744   -2613.6157     3515.846   -2560.3047   -275.98744    17324.696    499.69315    984.46657    50.867541    50.867541    50.867541   0.72302613 
 1270000    3133.6333    6239.1799    10156.595    2482.9815            0   -1647.5995   -2616.5469    3529.2588   -2560.3114   -273.70537    17231.156    501.65606    339.69328    51.008522    51.008522    51.008522   0.71704762 
 1280000    3158.5608    6478.1314     10108.75     2486.454            0   -1664.6345   -2641.8328    3537.5236   -2560.3253    -273.9971    17408.701    499.00194   -762.72883    50.990413    50.990413    50.990413   0.71781187 
 1290000    3183.3146    6530.7348    10114.938    2495.6656            0   -1548.1737    -2497.587    3509.6938   -2560.2805    -269.1952    17593.164    502.80565   -681.07965    51.291816    51.291816    51.291816   0.70523196 
 1300000    3207.8076    6465.2666    10186.031    2450.4786            0   -1608.8613   -2555.3761    3506.8525   -2560.3377   -269.91825    17492.915    504.14542    110.17793    51.245976    51.245976    51.245976   0.70712619 
 1310000     3232.527    6378.7449    10164.109    2463.7126            0   -1500.7864   -2431.9817    3491.4302   -2560.2349   -270.96489     17505.78     502.4793    1507.8584    51.179909    51.179909    51.179909   0.70986817 
 1320000      3257.21    6481.3063    10110.211    2467.2307            0     -1554.99   -2505.9054    3511.2303   -2560.3149   -270.98687    17503.758    501.06904    450.68574    51.178525    51.178525    51.178525   0.70992575 
 1330000    3282.1021    6375.7295    10200.249    2453.4086            0   -1642.0835   -2556.5969    3474.7931   -2560.2797    -272.5039    17387.304    503.01477    397.78212    51.083378    51.083378    51.083378   0.71390003 
 1340000    3306.6372    6394.3615    10127.117    2443.9863            0   -1552.1977   -2489.4293    3497.4644   -2560.2328   -271.54703    17413.267    499.22056     65.10876     51.14331     51.14331     51.14331   0.71139323 
 1350000    3331.4822    6546.0502    10108.992    2407.7879            0    -1663.352   -2612.1786    3509.1316    -2560.305   -272.62535    17399.478    497.74814     -1507.36    51.075791    51.075791    51.075791   0.71421821 
 1360000    3356.3295    6464.6684    10070.395    2503.1505            0   -1489.9239   -2454.9142    3525.2147   -2560.2244   -268.21792     17548.29    499.57145   -508.79182    51.354037    51.354037    51.354037   0.70267171 
 1370000     3380.888    6391.8444     10159.58    2465.1013            0   -1541.0169   -2463.5304    3482.7631   -2560.2495   -270.16215    17475.509    501.21427    633.67041     51.23055     51.23055     51.23055   0.70776515 
 1380000    3405.2807     6429.937    10051.997    2494.3467            0   -1516.8512   -2462.7155    3506.2586   -2560.3944   -268.22235    17459.429    500.64709    8.9225245    51.353754    51.353754    51.353754   0.70268331 
 1390000    3430.0866    6448.9476    10174.568    2472.3976            0   -1621.1355   -2543.0922    3482.2225   -2560.2658   -273.62079    17474.778    500.81238    925.59685    51.013778    51.013778    51.013778   0.71682604 
 1400000    3454.7581    6420.0482    10169.806    2420.7322            0   -1603.1858   -2519.6012    3476.6848   -2560.2693   -272.09906    17407.401    501.36012   -368.20458      51.1087      51.1087      51.1087   0.71283944 
 1410000    3479.5372    6417.7239    10185.822    2477.3696            0   -1546.5644   -2483.4607    3497.1921   -2560.2958   -270.04274    17534.351    500.56564    1033.3518    51.238099    51.238099    51.238099   0.70745234 
 1420000     3504.153    6433.9069    10098.506    2448.9172            0   -1624.3515   -2544.2034    3480.1833   -2560.3314   -269.67986    17356.979    499.47901    192.72885    51.261071    51.261071    51.261071   0.70650167 
 1430000    3528.5879    6397.6099    10122.868    2496.7929            0   -1622.6773   -2546.1956    3483.8542   -2560.3359   -269.27194    17394.594      503.492   -774.31034    51.286943    51.286943    51.286943   0.70543302 
 1440000    3552.9039    6412.1227    10240.534    2435.8291            0   -1560.2384   -2475.0447    3475.0679   -2560.2617   -271.81137    17528.247    498.92601    870.61788    51.126725    51.126725    51.126725   0.71208574 
 1450000    3577.5459    6312.1051    10118.717    2481.1383            0   -1669.9914   -2608.1753    3498.4555   -2560.2716   -273.36741    17241.969    504.68303    382.89896    51.029534    51.029534    51.029534   0.71616225 
 1460000    3602.2425     6481.479    10064.984     2492.592            0   -1620.7363   -2546.2964    3485.7422   -2560.1822   -271.17867    17418.319    500.12571    195.37943    51.166456    51.166456    51.166456   0.71042822 
 1470000    3626.9111    6434.8116    10182.489    2444.8812            0   -1603.0939   -2538.6608    3495.8666   -2560.2997   -270.01982    17459.088    499.20514   -872.98164    51.239549    51.239549    51.239549   0.70739229 
 1480000    3651.8463    6471.8792    10211.313    2477.6191            0    -1635.519   -2595.9421    3520.8024   -2560.3794   -273.15151    17525.293    498.79016   -975.08643    51.042975    51.042975    51.042975   0.71559663 
 1490000    3676.4269    6484.9316     10048.97    2514.9423            0   -1651.4683   -2619.2919    3528.0707   -2560.2471   -271.74072    17397.375    504.77632   -18.248222    51.131155    51.131155    51.131155   0.71190068 
 1500000     3701.197    6547.7988    9940.4865    2446.2881            0   -1545.0341   -2529.2674    3544.5217   -2560.2884   -269.20455    17389.539    501.35085   -444.11552    51.291222    51.291222    51.291222   0.70525647 
 1510000    3725.8679     6422.958    10083.862    2518.2079            0    -1602.903   -2548.7676    3506.2465   -2560.3819   -270.09331    17422.125    495.73129    303.18168    51.234902    51.234902    51.234902    0.7075848 
 1520000    3750.5387    6500.2464    9998.8827    2506.6989            0   -1525.9415   -2445.8711    3480.2063   -2560.2767   -269.66726    17479.887    500.48311   -626.12471     51.26187     51.26187     51.26187   0.70646865 
 1530000    3775.0264     6391.703    10086.883    2481.3992            0   -1526.1166   -2496.0289    3530.1976   -2560.2853   -267.69819    17433.868    501.89671   -369.57447    51.387249    51.387249    51.387249   0.70131013 
 1540000    3799.5551    6539.2019     10064.71    2530.0113            0   -1632.7324   -2570.9099    3498.4284   -2560.2508   -273.02284    17501.191    499.28295    201.73821    51.050993    51.050993    51.050993   0.71525953 
 1550000    3824.0603    6436.7383    10202.503    2490.7552            0   -1543.7194   -2490.3482    3506.9117   -2560.2829   -272.77207    17586.277    495.45753    544.27877    51.066632    51.066632    51.066632   0.71460257 
 1560000    3848.6812    6466.4014    10139.381    2454.1781            0   -1521.6266    -2457.886    3496.5725   -2560.3131   -268.83558    17538.334    500.32788     734.3047    51.314677    51.314677    51.314677   0.70428983 
 1570000    3873.3814    6456.5122    10161.206     2480.515            0    -1565.629   -2533.1852    3527.8334   -2560.2772    -269.9619    17532.604    498.46664   -512.85664    51.243214    51.243214    51.243214   0.70724054 
 1580000    3897.8704    6526.9629    10009.742    2457.8486            0   -1640.2014   -2573.6548    3493.7645    -2560.311   -272.00518    17354.352    500.66601   -1375.7462    51.114579    51.114579    51.114579    0.7125935 
 1590000    3922.3923    6464.4884     10170.06    2411.3779            0   -1585.5397   -2566.6707    3541.3196   -2560.1886     -270.237    17460.387    502.37214   -147.49297    51.225819    51.225819    51.225819   0.70796125 
 1600000    3946.9591    6552.0359    10105.549    2382.3102            0   -1574.8828   -2554.4954    3539.9014   -2560.2889    -271.6317    17465.013    499.58372    177.18927    51.137995    51.137995    51.137995   0.71161507 
 1610000    3971.4935    6519.9154    10192.358    2399.4995            0   -1615.0732   -2610.2853    3555.5029   -2560.2908    -270.8273      17496.7    496.73477   -727.65278    51.188575    51.188575    51.188575    0.7095077 
 1620000    3996.3349    6434.8122      10225.9     2502.718            0    -1510.165   -2483.3175    3533.3933   -2560.2409   -269.16539    17653.266    498.07963    379.59736     51.29371     51.29371     51.29371   0.70515387 
 1630000    4020.8636     6508.593    10194.054    2443.0627            0   -1700.6371   -2639.3213    3498.9481    -2560.264   -278.05915    17445.073    499.26613    125.10267    50.740894    50.740894    50.740894   0.72845356 
 1640000    4045.6476     6536.729     10021.86     2471.164            0   -1597.4853   -2540.8468    3503.6863   -2560.3248   -274.52404    17432.268     497.8513     193.9969    50.957767    50.957767    50.957767   0.71919236 
 1650000    4070.3982    6489.8849    10260.604    2417.6907            0   -1563.5462    -2530.169     3526.952   -2560.3291   -270.59735    17604.634    498.15983    179.21009     51.20307     51.20307     51.20307   0.70890529 
 1660000    4094.9957    6290.1324    10106.082    2493.2916            0   -1592.7384   -2527.3135    3494.8616   -2560.2864   -273.42998    17296.767    505.02129    -74.98669    51.025641    51.025641    51.025641   0.71632616 
 1670000    4119.6158    6416.3454    10246.467    2444.3926            0   -1488.9324   -2488.8439    3560.2574   -2560.3459   -269.74564    17618.273    498.77207   -259.93098    51.256904    51.256904    51.256904   0.70667399 
 1680000    4143.9217    6416.1896    10135.517    2495.6321            0   -1473.0139    -2436.214    3523.3798   -2560.1798   -263.72592    17574.325    500.49537   -968.46815    51.643965    51.643965    51.643965   0.69090365 
 1690000    4168.3987    6420.4588    10199.457    2501.5881            0   -1495.3203   -2473.7239     3538.638   -2560.2344   -269.93308    17626.184    495.97106   -87.229208    51.245037    51.245037    51.245037   0.70716505 
 1700000    4192.9145    6509.6383    10182.484    2433.6431            0   -1650.5523    -2600.869     3510.591   -2560.2743   -270.81387    17475.213    496.15049    38.411836    51.189421    51.189421    51.189421   0.70947252 
 1710000    4217.7334    6452.5977    10066.714    2439.6498            0   -1643.0879   -2619.5049    3536.7153   -2560.2984   -274.41364    17315.874    499.80553    583.36784      50.9646      50.9646      50.9646   0.71890312 
 1720000     4242.249    6510.1528    10169.125    2430.4274            0   -1631.2115   -2574.2763    3503.3806   -2560.3158   -272.35361    17478.494     498.1466    222.57781    51.092773    51.092772    51.092773    0.7135063 
 1730000    4266.7408    6530.2404    10017.621    2485.9531            0   -1680.6867   -2599.0683    3478.7199   -2560.3383   -272.56182    17353.128    498.01014     -282.184    51.079759    51.079759    51.079759   0.71405178 
 1740000    4291.1489    6438.0277    10113.885     2433.397            0   -1547.3146   -2535.9507    3548.8824   -2560.2463   -267.78493    17437.995     503.7826    143.33319      51.3817      51.3817      51.3817   0.70153737 
 1750000    4315.8282    6402.7621    10200.169     2477.166            0   -1639.5707   -2568.3397    3489.0693   -2560.3003   -272.17752    17440.527    503.18106    -67.84532    51.103789    51.103789    51.103789   0.71304499 
 1760000    4340.4278    6476.5153    10145.672    2464.0169            0    -1660.883   -2611.0965    3510.5289   -2560.3153   -272.75633    17425.321    496.37377   -981.37188    51.067614    51.067614    51.067614   0.71456134 
 1770000    4364.9327      6525.45    10180.361    2481.5584            0   -1568.8711   -2481.4283    3472.8242    -2560.267   -268.11137    17618.498    500.84308     -1196.45    51.360839    51.360839    51.360839   0.70239256 
 1780000    4389.7525    6442.3151    10092.342    2506.9163            0   -1607.3881   -2556.2081    3509.1128   -2560.2928   -270.09823    17434.185    500.67404   -214.45977     51.23459     51.23459     51.23459   0.70759771 
 1790000    4414.2713     6428.675    10123.067     2457.981            0   -1494.3107   -2411.8595    3477.8197   -2560.2709   -266.26537    17515.413      499.337   -365.16855    51.479259    51.479259    51.479259   0.69755647 
 1800000    4438.7234    6500.5059    10096.448    2525.2463            0   -1565.6683   -2510.9857    3505.5628   -2560.2454   -270.86297    17556.532    500.71096   -259.74509    51.186328    51.186328    51.186328   0.70960115 
 1810000    4463.4477    6355.7248    10067.088    2428.2275            0   -1682.3031   -2602.6372    3480.6513   -2560.3171   -271.29685    17168.737    500.70982   -1143.1248    51.159026    51.159026    51.159026   0.71073782 
 1820000    4488.4834    6355.9645    10213.142     2479.694            0   -1568.8678   -2533.4668    3524.8757   -2560.2767   -269.77594    17479.933    500.96527    -235.7311    51.254985    51.254985    51.254985   0.70675338 
 1830000    4513.4129    6508.9752    10143.274    2462.8868            0   -1739.2953   -2651.8973    3472.8443   -2560.2423   -276.10955    17375.841    497.93297    950.19486    50.860041    50.860041    50.860041   0.72334604 
 1840000    4537.8204    6395.5679    10193.642    2499.5907            0   -1541.5885   -2454.9592    3473.7141   -2560.3434   -270.09027    17547.212    498.07572    503.44201    51.235094    51.235094    51.235094   0.70757684 
 1850000    4562.3319     6389.319    10335.958    2409.2835            0   -1574.8564   -2530.9751    3516.4637   -2560.3449   -268.37012    17559.705     500.2594   -1006.3309    51.344327    51.344327    51.344327   0.70307043 
 1860000    4587.0421    6648.9134    10083.836    2449.2145            0   -1666.7227   -2632.4549    3526.0121   -2560.2799   -270.84051    17515.241    498.28868   -1106.8471    51.187742    51.187742    51.187742   0.70954232 
 1870000    4611.9377    6546.3521    10113.166    2513.0946            0   -1612.4554   -2550.6597    3498.4317   -2560.2274   -274.62852    17560.157    500.17756    492.75766    50.951304    50.951304    50.951304   0.71946608 
 1880000    4636.7631    6487.2394    10017.851    2479.4219            0   -1476.9522   -2427.6748    3510.9832   -2560.2606   -268.58955     17507.56    500.83941    486.11182     51.33034     51.33034     51.33034    0.7036453 
 1890000    4661.5343    6408.2303    10009.775    2435.9544            0   -1537.1084   -2498.8272    3521.9513   -2560.2325   -266.53811    17316.851    503.71262   -358.65118    51.461694    51.461694    51.461694   0.69827097 
 1900000     4686.081    6427.5891    10173.478     2399.358            0   -1515.6446   -2495.4726    3540.0821   -2560.2541   -268.88194    17484.781    501.55495     477.4094    51.311728    51.311728    51.311728   0.70441129 
 1910000    4710.4395    6508.5125    10012.216    2487.0182            0   -1698.9964   -2627.0712    3488.4176   -2560.3428   -273.70185     17308.75    501.19613    -43.68758    51.008741    51.008741    51.008741   0.71703839 
 1920000    4735.3056     6506.782     10079.16     2408.589            0   -1658.5238   -2570.6459    3472.3895   -2560.2674   -274.11522    17336.008    498.80727    157.25944    50.983088    50.983088    50.983088   0.71812132 
 1930000    4760.3128    6443.6174    10241.738    2439.1584            0   -1698.8362   -2676.3534    3537.7889   -2560.2716   -274.27576    17425.678     501.1447    -449.8866    50.973138    50.973138    50.973138   0.71854192 
 1940000    4785.1908    6321.5774    10212.351     2388.688            0   -1574.9433   -2524.3684    3509.7258   -2560.3007   -270.64375    17347.673    501.33111    258.40377    51.200144    51.200144    51.200144   0.70902684 
 1950000    4813.1567    6417.3591    10078.975    2510.8084            0   -1556.5143    -2516.247    3520.0916   -2560.3589   -273.88172    17450.628    499.85939    872.23642    50.997572    50.997572    50.997572   0.71750961 
 1960000    4837.5725    6397.9088    10236.728    2489.0794            0   -1634.2829   -2567.3081    3493.3263   -2560.3011     -271.736    17489.434    499.53967   -199.85668    51.131451    51.131451    51.131451   0.71188831 
 1970000    4862.3024    6466.3946    10006.399    2438.8609            0   -1658.0439    -2600.065    3502.2332   -2560.2121   -273.92102     17253.61    503.89933    502.85133    50.995133    50.995133    50.995133   0.71761257 
 1980000    4887.1413    6455.1881    10235.558    2473.3277            0   -1618.0978    -2526.664    3468.7938   -2560.2276   -269.12349    17545.976    500.38067   -769.14883    51.296372    51.296372    51.296372    0.7050441 
 1990000    4911.9523     6297.351    10275.082    2473.7016            0   -1655.9211    -2601.856    3506.3024   -2560.3675   -273.35487    17390.214    504.56113   -256.58365    51.030314    51.030314    51.030314   0.71612939 
 2000000     4936.674    6374.0317    10220.752    2475.1327            0   -1590.1216   -2535.3625    3505.4744   -2560.2335   -273.21675    17479.795    499.28278    173.23936    51.038912    51.038912    51.038912   0.71576754 
 2010000    4961.2103    6394.4397    10114.498    2422.0258            0   -1493.6925    -2482.913    3549.3718   -2560.1513   -270.89058    17437.271    496.18716    36.058981    51.184589    51.184589    51.184589   0.70967348 
 2020000    4985.7793     6581.899    10072.733    2451.4647            0    -1535.901   -2479.8811    3504.2412    -2560.261   -272.02672    17570.196    498.62404   -23.297417     51.11323     51.11323     51.11323   0.71264993 
 2030000    5010.2261     6546.888    10032.352    2486.1807            0   -1544.8798   -2531.7664    3547.1932   -2560.3066   -269.47124    17520.541    496.53005   -62.190774    51.274296    51.274296    51.274296   0.70595513 
 2040000    5034.9048    6325.5463    10201.435    2460.0298            0   -1627.6411   -2555.6749    3488.3548    -2560.321   -272.59094     17359.37    500.92492    823.83863    51.077941    51.077941    51.077941   0.71412804 
 2050000    5059.6158    6289.3144    10263.032    2434.1746            0   -1541.6303   -2509.0884    3527.7128   -2560.2546    -271.3023    17444.891    499.00868   -1001.7732    51.158683    51.158683    51.158683   0.71075211 
 2060000    5084.4826    6540.5238    10138.101    2442.0293            0   -1617.2688   -2576.4514    3519.5292   -2560.3466   -274.69969    17503.385    499.75867     1175.165    50.946904    50.946904    50.946904    0.7196525 
 2070000     5109.274    6360.0714    10080.795    2467.4643            0   -1591.4038   -2554.1715    3523.0801   -2560.3125   -272.75408    17316.927    502.21601    919.20929    51.067755    51.067755    51.067755   0.71455545 
 2080000    5133.8269    6424.6611    10171.612    2416.5863            0   -1645.9512   -2588.1897    3502.5079   -2560.2695   -271.92279    17366.909    496.62779   -259.11915    51.119741    51.119741    51.119741   0.71237765 
 2090000    5158.3607    6497.8873    10039.358    2444.4645            0   -1619.2375   -2579.6802    3520.6722   -2560.2296   -272.25544    17362.472    498.08952   -564.11541    51.098913    51.098913    51.098913   0.71324912 
 2100000    5183.0464    6539.0166    10265.834    2511.7323            0   -1505.3314   -2453.8997    3508.7809   -2560.2126   -267.04269    17811.252    495.73535   -186.53295    51.429261    51.429261    51.429261   0.69959287 
 2110000    5207.8327    6491.8212    10182.981    2402.6925            0   -1601.1503   -2559.1672    3518.2085   -2560.1916   -272.32164    17476.344    500.57886    71.898214    51.094772    51.094772    51.094772   0.71342255 
 2120000    5232.5143    6509.9194    10155.294    2431.9749            0   -1618.2951   -2600.9392    3542.9224   -2560.2783   -271.15406    17478.893     500.3668    473.86848    51.168004    51.168004    51.168004   0.71036374 
 2130000    5257.2428     6446.505     10090.54    2487.7338            0   -1590.9674   -2549.0487    3518.3067   -2560.2255   -269.81686    17433.811    503.60917   -807.28592    51.252394    51.252394    51.252394   0.70686058 
 2140000    5281.8487    6446.2472    10121.096    2470.4733            0    -1541.274   -2499.9301    3518.9503   -2560.2942   -269.80549    17496.542    500.04823   -8.7381962    51.253114    51.253114    51.253114   0.70683079 
 2150000    5306.4428    6514.7116    10033.139    2495.2796            0   -1623.9342   -2542.3855    3478.6929   -2560.2416   -270.99772    17419.196    497.96159   -44.689633    51.177842    51.177842    51.177842   0.70995418 
 2160000    5331.1892    6467.0602     10027.84    2479.7722            0   -1530.3879    -2514.985    3544.8785   -2560.2814   -271.65103    17444.284    500.00745   -413.18759    51.136782    51.136782    51.136782    0.7116657 
 2170000    5355.6478    6378.5871    10351.674    2513.9873            0   -1645.8699   -2618.9661    3533.4353   -2560.3391   -274.98589    17598.379    495.83282    1210.9299    50.929222    50.929222    50.929222    0.7204023 
 2180000    5380.3896    6569.2915    10029.729    2428.0887            0   -1576.5234   -2539.6124    3523.3852   -2560.2962   -275.03828    17450.586    496.62241    -249.1166    50.925989    50.925989    50.925989   0.72053954 
 2190000    5404.9568    6491.6556    10115.076     2472.768            0    -1611.269   -2560.3561    3509.3495   -2560.2624   -272.49398     17468.23    502.52802   -572.42588    51.083998    51.083998    51.083998   0.71387405 
 2200000    5429.6187    6324.5952    10201.279    2463.6401            0   -1594.8111   -2552.3726    3517.8826   -2560.3211   -272.20227    17394.704    500.17633    -143.8216     51.10224     51.10224     51.10224   0.71310982 
 2210000    5454.1722    6482.0195    10111.618    2453.8853            0   -1626.5502   -2573.2946    3507.0519   -2560.3075   -273.56855    17420.972    496.42829    442.09002    51.017025    51.017025    51.017025   0.71668918 
 2220000    5479.1515     6528.959    9973.1663    2439.9892            0   -1652.5156    -2594.027    3501.7849   -2560.2736   -271.75181    17289.599    497.89286    -124.8513     51.13046     51.13046     51.13046   0.71192973 
 2230000    5503.6516    6390.0739    10114.236    2452.1915            0    -1468.889   -2450.9594    3542.4221   -2560.3517   -267.41197    17487.613    503.65175   -21.902101    51.405576    51.405576    51.405576   0.70056031 
 2240000    5528.1737    6429.7073    10074.467    2483.3186            0   -1573.7306   -2519.7531    3506.3254   -2560.3029   -271.30697    17413.763    496.97898    106.63763     51.15839     51.15839     51.15839   0.71076434 
 2250000    5553.0342    6434.7282     10227.38    2536.4003            0   -1581.8892   -2526.6146    3505.0243   -2560.2989   -271.62869    17616.619    494.53001   -32.404058    51.138184    51.138184    51.138184   0.71160718 
 2260000    5578.0962    6304.6036    10122.017    2479.9062            0   -1628.8188   -2581.2181    3512.6284   -2560.2291   -274.07844    17277.708    504.56703    1006.4318    50.985368    50.985368    50.985368   0.71802497 
 2270000     5602.882    6494.4825    10041.798    2489.0596            0    -1595.018   -2589.1969     3554.519     -2560.34   -273.34675    17430.322    498.98507    104.30457     51.03082     51.03082     51.03082    0.7161081 
 2280000    5627.4067    6429.5976    10226.555    2462.7691            0   -1655.8391   -2618.5301    3523.0647   -2560.3737   -274.74856    17463.082    494.79749   -438.94601    50.943883    50.943883    50.943883   0.71978054 
 2290000    5651.8717    6514.5226    10018.109    2545.9741            0   -1603.3836   -2538.7829    3495.6718   -2560.2725   -269.19501    17475.222    501.10797   -61.581966    51.291829    51.291829    51.291829   0.70523146 
 2300000    5676.4129    6468.6156    10131.164     2450.997            0   -1543.5088    -2516.533    3533.2495   -2560.2253   -271.18494    17507.268    498.05116    594.61553    51.166062    51.166062    51.166062   0.71044463 
 2310000    5701.1543    6531.5718    10122.483     2403.787            0   -1542.1826    -2527.344    3545.4537   -2560.2922   -268.69864    17515.659    504.52071    233.53435    51.323393    51.323393    51.323393    0.7039311 
 2320000    5725.8548    6491.6197    10043.471    2484.2416            0    -1597.397   -2544.0812     3506.989   -2560.3048   -272.93663    17421.936    500.31161   -723.77005    51.056367    51.056367    51.056367    0.7150337 
 2330000    5750.5191    6460.3754    10047.258    2426.7035            0   -1547.9451   -2503.3301    3515.6522   -2560.2672   -269.86976    17386.392    499.58096     342.9241    51.249045    51.249045    51.249045   0.70699916 
 2340000    5775.1068    6466.5582    10075.806    2457.2194            0   -1612.5938   -2549.9812    3497.6551   -2560.2677   -272.64876     17386.99    496.99114    361.09498    51.074329    51.074329    51.074329   0.71427953 
 2350000    5799.5497    6446.1366    10114.878    2446.4087            0   -1677.4123   -2582.6672    3465.5068   -2560.2519   -272.56704    17330.011    503.56355   -1019.8664    51.079433    51.079433    51.079433   0.71406544 
 2360000    5824.0793    6408.1586    10163.351    2489.1522            0   -1441.4231   -2443.2266    3562.0915    -2560.288   -268.75361    17619.238    496.60365    294.44783    51.319893    51.319893    51.319893    0.7040751 
 2370000    5848.5359     6397.649    10165.821    2450.2903            0   -1555.0597   -2542.9466    3548.1584   -2560.2715   -272.16004      17458.7    503.25493    278.48547    51.104883    51.104883    51.104883   0.71299919 
 2380000    5873.1862    6349.5719    10157.758    2396.4551            0   -1609.1519   -2585.8825     3536.902   -2560.1714   -271.52223    17294.633    503.28133   -184.16122    51.144867    51.144867    51.144867   0.71132826 
 2390000    5897.8158    6413.0302    10299.459    2510.3987            0   -1529.2853   -2499.3417     3530.344   -2560.2876   -270.70228    17693.602    500.34727    226.17651    51.196454    51.196453    51.196454   0.70918018 
 2400000    5922.4933    6531.0073    10091.862    2479.5522            0   -1525.3922   -2486.0911    3520.9948   -2560.2959   -270.37874    17577.029    499.58881    536.49195    51.216866    51.216866    51.216866   0.70833258 
 2410000    5947.3433    6371.0255    10045.552    2464.3309            0   -1560.3976   -2508.7895    3508.6335   -2560.2416   -270.34804     17320.51    505.38956    402.10223    51.218805    51.218805    51.218805   0.70825215 
 2420000    5971.8178    6428.3303    10284.855    2473.7465            0   -1608.1384    -2568.216    3520.4602   -2560.3826   -271.86432    17578.793    499.75197   -699.47267    51.123406    51.123406    51.123406   0.71222446 
 2430000    5996.5372    6304.4786    10097.279    2426.8017            0   -1545.3241   -2464.6928    3479.6664   -2560.2977   -271.10634    17283.235     505.0188    1093.7085    51.171006    51.171006    51.171006   0.71023873 
 2440000    6021.3881    6371.9325     10214.09    2514.8344            0   -1514.9513   -2482.9033    3528.2019   -2560.2499   -268.55542    17585.906    501.93327    255.70468    51.332515    51.332515    51.332515   0.70355589 
 2450000    6045.8858    6451.1497    10053.442    2482.7916            0   -1613.4045   -2592.4982    3539.3535   -2560.2598   -271.55029    17373.979    499.27581   -269.69934    51.143105    51.143105    51.143105   0.71140178 
 2460000    6070.3342    6446.0115    10227.843    2534.2401            0   -1635.1015    -2562.469    3487.6849   -2560.3174   -272.83713    17572.993    496.86874    -186.0945    51.062573    51.062573    51.062573   0.71477302 
 2470000    6094.9385     6517.331    10251.188    2507.0749            0   -1595.2775   -2545.1907     3510.155   -2560.2418   -270.26109    17680.317    497.30642     325.6734    51.224297    51.224297    51.224297   0.70802436 
 2480000    6119.8054    6506.2845    10176.458    2463.9836            0   -1617.8079   -2542.4756    3484.9334   -2560.2657   -270.42977    17528.918    500.11825   -188.07924    51.213644    51.213644    51.213644   0.70846627 
 2490000    6144.4278    6374.3229    10223.254    2496.9301            0   -1654.3583   -2564.0593     3469.966    -2560.265   -272.91862    17440.149    496.29996    919.26374     51.05749     51.05749     51.05749   0.71498652 
 2500000    6169.1607    6537.8426     10184.78    2554.8914            0   -1616.7792   -2572.8745    3516.3801   -2560.2847   -272.56998    17660.735        498.7   -287.81066     51.07925     51.07925     51.07925   0.71407313 
 2510000    6193.7522     6473.634    10304.999    2460.8964            0   -1605.0419   -2556.2151     3511.521   -2560.3478    -273.1399    17634.488    495.33648   -502.80737    51.043698    51.043698    51.043698   0.71556622 
 2520000    6218.2158    6405.4155    10003.074    2469.4414            0   -1528.3056    -2496.627    3528.6516   -2560.3302   -272.77693    17349.625    501.81491    645.80467    51.066329    51.066329    51.066329   0.71461532 
 2530000    6242.7958    6466.9104    10226.473    2457.5586            0   -1618.1316   -2567.3445    3509.5256   -2560.3127   -271.75831    17532.811    493.40058   -173.31677    51.130052    51.130052    51.130052   0.71194675 
 2540000     6267.389    6397.9568    10219.291    2474.9799            0   -1484.6037   -2459.5069    3535.1785   -2560.2753   -268.75985    17607.624    499.40326    377.90616    51.319497    51.319497    51.319497   0.70409144 
 2550000    6292.0128    6435.4469     10163.07    2459.2865            0   -1587.2665   -2557.1238    3530.1437   -2560.2864   -269.88054    17470.537    497.44953   -804.57613    51.248363    51.248363    51.248363   0.70702739 
 2560000    6316.4283    6425.1508    10176.159    2552.7632            0   -1508.4361   -2459.2936    3511.2029   -2560.3454    -268.4536    17645.637    499.15377    86.709373    51.339004    51.339004    51.339004   0.70328913 
 2570000    6340.7694    6506.8968     10212.85    2539.3253            0   -1536.7906   -2499.3498    3522.9179   -2560.3587   -271.27063    17722.281    501.56676   -130.65509    51.160674    51.160674    51.160674   0.71066913 
 2580000    6364.9998    6432.7403    10118.864    2452.8448            0   -1481.1493   -2451.2621    3530.3834   -2560.2705   -268.58551      17523.3    500.24512   -198.58818    51.330598    51.330598    51.330598   0.70363471 
 2590000    6389.3791    6437.8735    10198.653    2497.0004            0   -1571.5157   -2542.5987    3531.3153   -2560.2323   -268.58126    17562.011    499.66239   -222.50652    51.330868    51.330868    51.330868   0.70362359 
 2600000    6413.8229    6393.2722    10088.885     2484.467            0   -1595.7601   -2539.4271    3504.0034   -2560.3364   -270.93219    17370.864    499.67648    51.332041    51.181968    51.181968    51.181968    0.7097825 
 2610000    6438.1753    6388.0328     10171.82    2403.9016            0   -1600.6289   -2557.3087    3516.9861   -2560.3063   -272.40559    17363.126    501.48999    225.57191    51.089522    51.089522    51.089522   0.71364249 
 2620000    6463.1172    6395.2617    10155.896    2461.4257            0   -1543.1497   -2544.6501    3561.8356   -2560.3352   -271.09771    17469.434    505.57516   -40.245467    51.171549    51.171549    51.171549   0.71021613 
 2630000    6487.9559    6459.0773    10220.941    2389.4415            0   -1674.0066   -2644.0364    3530.3101   -2560.2803   -274.56745    17395.453     500.0325   -94.935124    50.955082    50.955082    50.955082   0.71930606 
 2640000    6512.3942    6489.0071    10054.255    2478.2243            0   -1660.2823    -2627.377    3527.3331   -2560.2383   -276.75563    17361.204    497.24701    652.14588    50.820433    50.820433    50.820433   0.72503863 
 2650000    6537.1805    6470.6146    10046.107    2373.7584            0   -1643.4554   -2620.6101    3537.5367    -2560.382   -274.87296    17247.025    503.86881   -210.92996    50.936196    50.936196    50.936196   0.72010644 
 2660000    6561.8073    6306.5943    10341.991    2492.5678            0   -1769.4299   -2698.6439    3489.4327   -2560.2187   -275.51088    17371.723    499.19331     156.7356    50.896853    50.896853    50.896853   0.72177766 
 2670000    6586.2162    6513.2314    10167.541    2460.3461            0   -1663.6193   -2611.6221    3508.2283   -2560.2255   -273.56325      17477.5    497.11781   -603.68574    51.017354    51.017354    51.017354   0.71667528 
 2680000    6610.8962    6423.3712    10071.525    2508.9989            0   -1610.7755   -2566.9519    3516.4562   -2560.2799    -273.4253    17393.119    496.69233    22.697735    51.025933    51.025933    51.025933   0.71631388 
 2690000     6635.547    6450.8557    10101.808    2488.1948            0   -1606.3769   -2549.1582    3503.0559   -2560.2746   -271.42198    17434.482    499.05611    394.71532    51.151163    51.151163    51.151163   0.71106563 
 2700000    6660.1366     6451.585    10155.899    2450.9549            0   -1620.1651   -2593.3256    3533.4485   -2560.2879   -273.78439    17438.273    498.74781   -929.71581    51.003615    51.003615    51.003615   0.71725463 
 2710000    6684.7163    6607.3263    10023.991    2473.2017            0   -1618.9768   -2556.6994    3498.0232   -2560.3006   -272.03494    17485.542    498.15858    12.475527    51.112715    51.112715    51.112715   0.71267146 
 2720000    6709.7178    6512.8484    9928.8976    2450.4384            0   -1560.1948   -2488.2624    3488.2502   -2560.1826   -272.46576     17331.99    501.58594   -626.81814    51.085761    51.085761    51.085761   0.71380012 
 2730000    6734.4269     6438.703    10184.382    2452.5644            0   -1595.8668   -2524.5777    3488.9651   -2560.2542   -271.83821    17479.783    498.24462    349.84729    51.125043    51.125043    51.125043   0.71215607 
 2740000    6759.0369    6370.8177    10202.477    2509.4754            0    -1631.231   -2567.7361    3496.7239   -2560.2187   -274.16823    17451.539    497.07275   -182.34393    50.979802    50.979802    50.979802    0.7182602 
 2750000    6783.7085     6453.855    10140.926     2472.763            0   -1626.0663   -2582.4578    3516.6974   -2560.3059   -273.20039    17441.478    501.14027   -482.50032    51.039931    51.039931    51.039931   0.71572469 
 2760000    6808.3093     6492.447    9944.2797    2482.0443            0   -1595.6686   -2514.3966    3479.0466   -2560.3186   -272.17169    17323.102    500.43594   -355.52973    51.104153    51.104153    51.104153   0.71302972 
 2770000    6832.8499    6359.4662    10282.621    2472.9303            0   -1627.3632   -2573.5406    3506.4605   -2560.2831   -269.35369    17487.654    504.46305    234.27151    51.281754    51.281754    51.281754   0.70564717 
 2780000    6857.2654    6438.8632    10031.026    2549.5539            0   -1416.6115    -2384.782    3528.4424   -2560.2719   -267.45356    17602.831    498.49009   -96.580849    51.402912    51.402912    51.402912   0.70066925 
 2790000    6882.0949    6450.6285    10155.535    2491.1427            0   -1471.9801    -2431.568    3519.8997   -2560.3117   -266.57691    17625.326    499.85652   -346.42105    51.459197    51.459197    51.459197   0.69837264 
 2800000    6906.6965    6428.3299    9977.2395    2365.5645            0   -1623.8304   -2571.2925    3507.7816   -2560.3195   -274.76697    17147.304     500.0713    690.03273    50.942745    50.942745    50.942745   0.71982878 
 2810000    6931.2961    6412.5539    10143.085     2484.807            0   -1730.2456   -2633.6131     3463.679   -2560.3115   -275.93104      17310.2    502.58363   -595.77184    50.871007    50.871007    50.871007   0.72287837 
 2820000    6955.7846    6380.4114    9963.5024     2524.014            0   -1641.1918   -2614.2088    3533.2494   -2560.2324   -273.70429    17226.736    500.45745    441.72175    51.008589    51.008589    51.008589   0.71704479 
 2830000    6980.7095    6536.6305     10094.34    2446.8161            0   -1585.2736   -2575.4283    3550.3481   -2560.1934   -273.20727    17492.513    500.38451   -179.86769    51.039502    51.039502    51.039502   0.71574272 
 2840000    7005.3869    6415.1259     9986.893    2480.2436            0   -1631.7514    -2546.895    3475.4485    -2560.305   -274.60646    17250.511    503.82174   -329.07169    50.952668    50.952668    50.952668   0.71940828 
 2850000    7030.0523    6354.9168    10202.479    2398.0329            0   -1658.8512   -2592.8764     3494.354   -2560.3288   -271.65207    17296.577    497.25451    373.87765    51.136717    51.136717    51.136717   0.71166842 
 2860000    7055.0573    6528.1506    10171.599    2490.8595            0   -1631.2472   -2585.0663    3514.0951    -2560.276   -272.38679    17559.361    493.27036   -1803.2481    51.090698    51.090698    51.090698   0.71359322 
 2870000    7080.1411    6589.8331     9992.491    2405.8886            0    -1724.827   -2691.5231    3527.0044   -2560.3083   -274.85653    17263.386    496.85063   -584.62161    50.937211    50.937211    50.937211   0.72006339 
 2880000    7104.8288     6476.299    10113.052    2441.5112            0   -1575.9562   -2526.6031    3510.8228   -2560.1759   -270.13624    17454.906     499.6246   -224.15654    51.232187    51.232187    51.232187   0.70769729 
 2890000    7129.3619    6489.8527    10120.544    2429.1084            0   -1655.0871   -2591.9181    3497.0476   -2560.2166   -271.97823    17384.418    502.59461    46.349438    51.116267    51.116267    51.116267    0.7125229 
 2900000    7154.0852    6395.2433    10128.639    2408.8543            0    -1457.493   -2435.1317    3537.8982   -2560.2595   -267.23264    17475.243    502.22371   -583.55645    51.417073    51.417073    51.417073   0.70009049 
 2910000    7178.8584    6500.3891    10055.679    2466.7022            0   -1560.5591   -2529.6374     3529.359   -2560.2807   -271.46918    17462.211    492.82777    1330.5397    51.148198    51.148198    51.148198    0.7111893 
 2920000    7203.8317    6477.7268    10226.335    2492.5453            0   -1636.4177   -2595.2661    3519.1271   -2560.2787   -273.07254     17560.19    499.13109   -455.06106    51.047895    51.047895    51.047895   0.71538973 
 2930000    7228.5828     6449.525    10259.655    2432.0542            0   -1501.0215   -2461.3874    3520.6608    -2560.295   -268.74488    17640.213    498.46478   -845.84338    51.320449    51.320449    51.320449   0.70405223 
 2940000     7253.258     6463.354    10125.552    2443.6079            0   -1649.3304   -2598.8768    3509.7459   -2560.1996   -273.02909    17383.183    499.17943    -374.8994    51.050603    51.050603    51.050603    0.7152759 
 2950000    7278.0687    6472.2578    10053.639    2513.7638            0   -1561.9239   -2468.1844    3466.5427   -2560.2822   -271.34035    17477.737    500.79185    106.91188    51.156291    51.156291    51.156291    0.7108518 
 2960000    7302.7567    6312.7519    10168.766    2432.1946            0   -1616.4565   -2593.2674    3537.0094   -2560.1984   -273.45515    17297.256    501.10612   -866.05696    51.024076    51.024076    51.024076   0.71639209 
 2970000    7327.2593    6397.6883    10139.218    2447.6018            0   -1685.2473   -2588.0923    3463.1838   -2560.3388   -274.32901    17299.261    500.13756    239.31344     50.96984     50.96984     50.96984   0.71868142 
 2980000    7351.8089    6521.0721    9910.8652    2478.0149            0   -1593.2868   -2564.3582    3531.3723   -2560.3008   -271.42341    17316.665    502.77494    -687.8764    51.151073    51.151073    51.151073   0.71106939 
 2990000    7376.6541    6364.2061    10027.106    2530.0368            0   -1699.6926   -2621.7789    3482.3447   -2560.2583    -273.4201    17221.657    501.85026   -452.52714    51.026256    51.026256    51.026256   0.71630028 
 3000000    7401.5433    6404.1274    10332.841    2471.8075            0   -1576.0801   -2531.2725    3515.5029   -2560.3105   -271.67138    17632.696    495.57256   -260.70497    51.135505    51.135505    51.135505   0.71171901 
 3010000    7426.3102     6455.032    10082.816    2450.9073            0   -1551.2772   -2483.4688    3492.4427   -2560.2511   -271.88537    17437.478    496.44569    497.65796    51.122086    51.122086    51.122086   0.71227963 
 3020000     7451.333    6544.6959    10219.754    2443.0582            0   -1659.7739   -2587.6885    3488.1594   -2560.2447   -273.60489    17547.734    493.33611     1025.125    51.014766    51.014766    51.014766   0.71678437 
 3030000    7476.5122    6427.6475    10180.668    2414.9906            0   -1710.5454   -2665.0135    3514.7834   -2560.3152   -277.75706    17312.761    503.72045    229.91142    50.759283    50.759283    50.759283   0.72766215 
 3040000    7501.2243    6399.9992    10188.482    2444.1079            0   -1691.4122   -2608.5874    3477.3814   -2560.2062   -275.29817    17341.177    499.15138     61.75978    50.909958    50.909958    50.909958   0.72122041 
 3050000    7525.9852    6456.6375    10134.674    2473.4144            0   -1630.9351   -2595.7523    3525.0067   -2560.1896   -270.08504    17433.791    497.43403   -887.00465    51.235425    51.235425    51.235425   0.70756314 
 3060000     7550.759    6591.3103     10055.81    2449.7388            0   -1603.4894   -2580.3529    3537.1085    -2560.245   -272.11027     17493.37    498.89772    -752.3553    51.107998    51.107998    51.107998   0.71286881 
 3070000    7575.3918    6401.2607    10033.637    2485.7383            0   -1506.5744   -2462.4725    3516.1992   -2560.3012   -269.40964    17414.062    499.54978   -153.40967    51.278204    51.278204    51.278204   0.70579376 
 3080000    7600.1494    6546.1538     10088.04    2429.4422            0   -1692.3708   -2632.9393    3500.7864   -2560.2179   -271.85912    17371.266    504.69043   -397.04277    51.123732    51.123732    51.123732   0.71221084 
 3090000    7624.5279     6482.386    10074.231    2486.3851            0   -1683.6153    -2613.649    3490.3427   -2560.3091    -273.9144    17359.387    497.95183   -203.42044    50.995544    50.995544    50.995544   0.71759523 
 3100000    7648.9194    6302.4632    10201.555    2465.3848            0   -1600.4868    -2533.662    3493.4846   -2560.3094   -271.61745    17368.916    503.63763   -461.51106     51.13889     51.13889     51.13889   0.71157771 
 3110000    7673.6602    6477.5268    10128.874    2505.4014            0   -1680.8255   -2609.0272    3488.5059   -2560.3042   -271.72908    17430.976    499.56024   -320.21191    51.131885    51.131885    51.131885   0.71187018 
 3120000    7698.0631    6427.1604    10077.898    2460.8375            0   -1569.3419   -2531.7552     3522.744   -2560.3307   -271.45783    17396.554    499.39424   -268.44476    51.148911    51.148911    51.148911   0.71115956 
 3130000    7722.7603    6439.8893    10067.385    2427.5776            0   -1552.3029   -2492.3379    3500.3294   -2560.2944   -269.20744    17382.549    503.23342   -262.89745    51.291039    51.291039    51.291039   0.70526403 
 3140000    7747.3783    6366.3799    10086.328    2416.8767            0   -1663.4829   -2576.0089    3472.8307   -2560.3048   -273.13527    17206.102    504.58863    701.83241    51.043987    51.043987    51.043987   0.71555407 
 3150000    7772.7086    6507.2824    9997.2414    2443.6433            0   -1668.4886   -2610.8318    3502.6374   -2560.2943   -272.06064    17279.678    505.36323   -453.55077    51.111106    51.111106    51.111106   0.71273879 
 3160000    7797.2911    6545.0304    10126.149     2428.189            0   -1706.2204   -2625.0486    3479.1649   -2560.3366   -272.05248    17393.148    499.31008    160.43698    51.111617    51.111617    51.111617    0.7127174 
 3170000    7821.7261    6493.3648     10056.89     2460.449            0   -1547.8879   -2506.6606    3518.9568   -2560.1841   -270.88854    17462.816    505.27303   -431.94748    51.184717    51.184717    51.184717   0.70966815 
 3180000    7846.1854    6424.3754    10280.629    2490.6262            0   -1692.6558   -2577.7645    3445.4701   -2560.3614   -271.53935    17502.974    496.71445    1050.2189    51.143792    51.143792    51.143792   0.71137313 
 3190000    7870.6765    6472.8273    10068.458    2524.2178            0   -1727.2749   -2672.8462    3505.8145   -2560.2432   -276.83017    17338.228    503.81163    486.29421    50.815871    50.815871    50.815871    0.7252339 
 3200000    7895.3717    6471.7572    10033.808    2456.7247            0   -1602.4426   -2532.5401    3490.4154   -2560.3178   -268.45502    17359.847    503.27718   -627.00053    51.338913    51.338913    51.338913   0.70329287 
 3210000    7920.0418    6385.6107    10120.268    2435.3911            0   -1560.6243   -2468.6158    3468.2234    -2560.232   -268.36807    17380.646    500.96982    70.106236    51.344458    51.344458    51.344458   0.70306506 
 3220000    7944.6822    6440.9264    10164.089    2446.1156            0   -1635.8273   -2597.1964    3521.6863   -2560.3172   -271.96924    17415.304    503.36286     593.1642    51.116831    51.116831    51.116831   0.71249933 
 3230000    7969.3162    6386.6958    10237.571    2493.1991            0   -1585.9572   -2528.6527    3502.9969   -2560.3014   -272.23457    17531.509    496.07717    190.84315    51.100218    51.100218    51.100218   0.71319445 
 3240000    7993.9076    6453.4773    10286.724    2482.6674            0   -1578.7648   -2538.5653    3520.1065   -2560.3061   -268.39288    17644.104    497.40738   -734.59689    51.342875    51.342875    51.342875   0.70313006 
 3250000    8018.5351    6401.7088    10052.492    2453.0851            0   -1587.8908   -2540.1507    3512.6311   -2560.3713   -273.26566    17319.395     505.5531    343.55215    51.035867    51.035867    51.035867   0.71589568 
 3260000    8043.2004    6370.2739    10210.321    2487.3266            0   -1567.3084   -2550.6422    3543.6446   -2560.3108   -274.50758    17500.613    499.79706   -593.51175    50.958785    50.958785    50.958785   0.71914924 
 3270000    8067.7159    6527.2557    10101.235     2407.844            0   -1628.3319   -2603.5753    3535.5066   -2560.2632    -273.3402    17408.002    500.46214   -1522.6014    51.031227    51.031227    51.031227   0.71609094 
 3280000    8095.5838    6352.5845    10062.476     2457.347            0   -1635.1678   -2585.0505    3510.1677    -2560.285   -273.55516    17237.239    503.76712     491.0749    51.017857    51.017857    51.017857    0.7166541 
 3290000    8120.2388    6381.6507    10138.886    2429.2488            0   -1518.0072   -2504.6267     3546.938   -2560.3185   -271.02327    17431.778    497.36954    724.63632    51.176234    51.176234    51.176234   0.71002112 
 3300000    8144.6733    6402.8191    10102.894    2494.2875            0   -1577.6266   -2537.8445    3520.4949    -2560.277   -272.15058    17422.374    503.23835   -373.88554    51.105475    51.105475    51.105475   0.71297441 
[...]
 4200000    10352.419    6362.3315    10193.882    2529.6067            0   -1568.6011   -2502.9946    3494.7234   -2560.3299   -269.95047    17517.219    504.56536    20.104307    51.243937    51.243937    51.243937    0.7072106 
 4210000     10376.69    6415.6782    10236.959    2442.0063            0   -1430.9923   -2437.6461    3566.9377   -2560.2839   -269.65703    17663.651    498.93045   -88.299153    51.262518    51.262518    51.262518   0.70644185 
 4220000    10401.021    6407.8381     10203.18     2485.175            0   -1654.2767   -2544.3433    3450.3584   -2560.2918   -272.83936    17441.916    501.38481   -231.39383    51.062433    51.062433    51.062433   0.71477886 
 4230000    10425.643    6504.5958    10145.277    2427.3528            0   -1650.5406   -2558.8978    3468.7031   -2560.3458   -272.37183    17426.685    501.00609   -652.60228    51.091633    51.091633    51.091633   0.71355403 
 4240000    10450.177    6407.3382    10106.189     2464.173            0   -1608.2389   -2528.8442    3480.8403    -2560.235    -273.5839    17369.462    498.85996    850.49605     51.01607     51.01607     51.01607    0.7167294 
 4250000    10474.814    6446.3735    10071.045    2515.8329            0    -1497.073   -2476.6776    3539.8756   -2560.2709   -269.84298    17536.179    498.66255    101.87032     51.25074     51.25074     51.25074   0.70692901 
 4260000    10499.431    6393.0266    10235.631     2486.486            0   -1565.8711   -2522.0527    3516.4988   -2560.3172    -270.7079    17549.273    505.05494   -674.40894    51.196099    51.196099    51.196099   0.70919491 
 4270000    10524.133    6460.8798    10152.639    2517.0627            0   -1498.8867   -2465.9482    3527.3322   -2560.2707   -268.97738    17631.695    499.70346   -877.25281    51.305658    51.305658    51.305658   0.70466132 
 4280000    10549.023    6460.5889    10182.425    2484.2815            0   -1620.2919   -2576.5249    3516.4633   -2560.2303   -275.68609    17507.004    497.10536    46.345723    50.886069    50.886069    50.886069   0.72223666 
 4290000    10573.717    6341.7338    10166.468    2456.8436            0   -1651.2963   -2570.5877    3479.6788   -2560.3874   -272.75811    17313.749    504.07815    -150.0056    51.067503    51.067503    51.067503   0.71456601 
 4300000    10598.177    6527.2426    10077.331    2457.1352            0    -1585.034   -2544.5834     3519.863   -2560.3137   -268.73622    17476.675    502.97392   -344.79175       51.321       51.321       51.321   0.70402955 
 4310000    10623.059     6447.064    10246.174    2428.0887            0    -1603.792    -2548.969    3505.4623   -2560.2854   -271.96028    17517.535    500.78562   -316.44699    51.117392    51.117392    51.117392   0.71247587 
 4320000    10647.472    6427.6834     10101.52      2465.72            0    -1665.753   -2610.0548    3504.6042   -2560.3025   -272.42672    17329.171    504.53371   -279.92576    51.088202    51.088201    51.088202   0.71369784 
 4330000    10672.035    6311.7083    10174.388    2457.9513            0   -1599.3648   -2549.8387    3510.7643   -2560.2903   -271.27901    17344.682    502.45055    208.87051    51.160147    51.160147    51.160147   0.71069109 
 4340000    10696.795    6317.0169    10128.468    2486.0632            0   -1552.5482   -2507.4596    3515.2302   -2560.3188   -272.25244        17379    501.21328    1393.7922    51.099101    51.099101    51.099101   0.71324125 
 4350000    10721.394     6649.944    10156.574    2480.6472            0   -1569.9321   -2543.5455     3533.802   -2560.1886   -271.87259    17717.233    494.91251   -1187.1326    51.122887    51.122887    51.122887   0.71224614 
 4360000    10745.851    6409.7741    10115.232    2464.0742            0   -1549.1845   -2495.6447    3506.7488   -2560.2886   -271.87615    17439.896    500.93834     79.67616    51.122664    51.122664    51.122664   0.71225547 
 4370000    10770.445    6410.9899    9964.3008    2448.6334            0     -1630.58   -2579.9304    3509.6953   -2560.3449   -270.55955    17193.344    506.80567   -112.76093    51.205454    51.205454    51.205454   0.70880627 
 4380000    10794.915    6521.5459     10104.32    2404.5486            0   -1527.6094   -2470.8783      3503.54    -2560.271   -266.15641    17502.805    496.80139    413.47845    51.486283    51.486283    51.486283     0.697271 
 4390000    10819.247     6519.055    10087.886    2445.1319            0   -1661.5846    -2615.024     3513.759   -2560.3196   -272.56726    17390.488    500.77035    647.34354    51.079419    51.079419    51.079419   0.71406602 
 4400000    10843.661    6460.9196    10274.702    2455.7475            0    -1622.987    -2568.622    3505.8392   -2560.2042   -269.72597    17568.382    498.70302    -350.3302     51.25815     51.25815     51.25815   0.70662246 
 4410000    10868.265    6342.1325    10162.281    2457.9822            0   -1532.8573   -2494.0104    3521.5299   -2560.3767   -269.81304    17429.539    499.76772   -376.55082    51.252635    51.252635    51.252635   0.70685058 
 4420000    10892.708    6414.5215    10190.525    2454.0684            0   -1632.3226   -2586.8289    3514.8091   -2560.3029   -273.23081    17426.792    506.00027   -372.57669    51.038037    51.038037    51.038037   0.71580436 
 4430000    10917.227    6450.7097    10127.164    2516.3559            0   -1515.9585   -2419.1711    3463.4044   -2560.1918   -266.91826    17578.271    498.02198    259.15029    51.437252    51.437252    51.437252   0.69926688 
 4440000    10941.963    6572.5625    10035.483    2500.8781            0   -1661.9205   -2588.3156    3486.6711    -2560.276   -270.16626    17447.003    502.89813   -1813.6736     51.23029     51.23029     51.23029   0.70777593 
 4450000    10966.579    6455.6117    10242.984    2447.6857            0   -1599.1296   -2565.7167    3526.9067   -2560.3195   -271.87983    17547.152    496.42843    -1234.752    51.122433    51.122433    51.122433   0.71226511 
 4460000    10991.056    6449.9492    10074.311     2474.461            0   -1553.0602    -2506.631    3513.8484   -2560.2775   -271.30057    17445.661    500.43965   -50.356514    51.158792    51.158792    51.158792   0.71074757 
 4470000    11015.477    6432.9991    10252.743    2450.8905            0   -1495.9593   -2456.2602     3520.511   -2560.2101   -268.00708    17640.673    497.06265    215.28161      51.3675      51.3675      51.3675   0.70211934 
 4480000    11039.734    6291.5899    10150.782    2480.6732            0   -1567.7182   -2538.3965    3530.9156   -2560.2374   -271.02941    17355.327    504.42433    415.02046    51.175848    51.175848    51.175848   0.71003718 
 4490000    11064.039    6384.6524     10131.26    2494.4699            0   -1599.6209   -2542.0917    3502.7793   -2560.3084   -273.71346    17410.762    498.94071    303.27999     51.00802     51.00802     51.00802   0.71706882 
 4500000    11088.386    6499.5817    10136.585    2477.3624            0   -1590.0184   -2586.4044    3556.6319   -2560.2459   -274.02159     17523.51    503.62043    21.908047    50.988893    50.988893    50.988893   0.71787605 
 4510000    11112.853    6435.6925    10419.024     2455.356            0   -1564.7211   -2529.6621    3525.2279   -2560.2869   -271.30734    17745.351     493.2457   -538.14491    51.158366    51.158366    51.158366   0.71076531 
 4520000    11137.411    6399.8198     10002.53    2460.8378            0   -1609.1095   -2536.2364    3487.3808   -2560.2539   -269.58581    17254.078    505.33878   -63.700483    51.267032    51.267032    51.267032   0.70625528 
 4530000    11161.781    6291.2625    10161.335    2518.4294            0    -1551.817   -2540.8363    3549.3946   -2560.3753   -270.97026     17419.21    507.00887    956.36626    51.179571    51.179571    51.179571   0.70988224 
 4540000     11186.46    6359.9122    10218.599    2478.0501            0   -1562.1018   -2527.6616    3525.8829   -2560.3231   -269.53145     17494.46    498.39577   -290.29341    51.270478    51.270478    51.270478   0.70611285 
 4550000    11211.287    6355.5489    10091.895    2437.6402            0   -1636.3744   -2597.4572    3521.4465   -2560.3637   -275.25944     17248.71    501.38792    683.74457    50.912346    50.912346    50.912346   0.72111893 
 4560000     11235.67    6511.5571    10076.394    2407.0006            0   -1522.7149    -2482.773    3520.2708   -2560.2127   -268.56995    17472.236    499.68821   -330.37649    51.331589    51.331589    51.331589   0.70359394 
 4570000    11260.203    6521.3154     10123.78    2477.5289            0   -1521.3833   -2516.6017    3555.5431   -2560.3247   -269.70026    17601.241    497.75697    -345.5601    51.259779    51.259779    51.259779    0.7065551 
 4580000    11284.475    6312.9065    10146.317    2494.9919            0   -1468.8233    -2439.125    3530.6017   -2560.3001   -266.08472    17485.392    500.26536   -207.33331    51.490907    51.490907    51.490907   0.69708319 
 4590000    11309.404    6488.3054    9967.4941    2508.1769            0   -1662.9945   -2589.0213    3486.2408   -2560.2141    -275.6475    17300.982    502.53344   -457.54104    50.888443    50.888443    50.888443   0.72213556 
 4600000    11333.736    6495.7001    10061.632     2463.312            0   -1555.6403   -2493.2479    3497.8224   -2560.2148     -269.113    17465.004    499.41746    264.03975    51.297038    51.297038    51.297038   0.70501663 
 4610000    11358.087    6505.1763    10097.415       2473.5            0   -1562.1796   -2526.0901      3524.14   -2560.2295   -270.16556    17513.911    500.04505    494.93602    51.230334    51.230334    51.230334   0.70777409 
 4620000    11382.404     6520.232    10126.441     2539.806            0   -1530.2612   -2478.6504     3508.693   -2560.3037    -269.6956    17656.218    496.04206    27.255692    51.260074    51.260074    51.260074   0.70654291 
 4630000    11406.673      6398.61    10207.274     2403.665            0   -1536.8515   -2458.6969    3481.9955   -2560.1502   -269.36054    17472.697     496.8423    93.072003     51.28132     51.28132     51.28132   0.70566511 
 4640000    11431.303    6432.7826    10157.107    2486.5429            0   -1649.0353   -2569.6092    3480.8204   -2560.2466   -272.91696    17427.397    501.12978   -1157.4591    51.057593    51.057593    51.057593   0.71498216 
 4650000    11456.014    6491.9179     10097.63    2444.6873            0   -1717.1993   -2647.5517    3490.5535   -2560.2011   -272.99259    17317.036    505.77374   -635.24235    51.052878    51.052878    51.052878   0.71518028 
 4660000    11480.716    6503.8725    10171.499    2457.0708            0   -1662.9511   -2645.6979    3543.0346   -2560.2877   -274.92009    17469.491    496.97004   -370.48168    50.933285    50.933285    50.933285   0.72022992 
 4670000    11505.781    6499.1449    10003.522    2452.2332            0    -1548.538   -2516.9755    3528.6758   -2560.2382   -272.84823    17406.362    504.85071     974.6774     51.06188     51.06188     51.06188   0.71480209 
 4680000    11530.501    6299.1981    10095.274    2416.3824            0   -1513.9254   -2487.6499     3534.104   -2560.3795   -270.01336     17296.93    500.81697    492.22508    51.239958    51.239958    51.239958   0.70737537 
 4690000    11555.496    6439.1135    10046.749    2508.7528            0   -1624.2541    -2572.752    3508.7568   -2560.2589   -274.20733    17370.362    498.09238    182.72689    50.977378    50.977378    50.977378   0.71836264 
 4700000    11579.999    6456.7994    9969.0735    2465.2822            0    -1648.721    -2559.312    3470.8555   -2560.2645   -272.23435    17242.434    504.00926    98.184551    51.100232    51.100232    51.100232   0.71319387 
 4710000    11607.667    6416.3039    10023.881    2468.9341            0   -1516.7267   -2443.3246    3486.8248   -2560.2269    -269.0055    17392.392    502.71102   -451.90942     51.30387     51.30387     51.30387   0.70473501 
 4720000    11632.311    6350.2315    10180.881     2476.374            0   -1615.8824   -2528.2666    3472.6453   -2560.2611   -271.80401    17391.604    503.85193    1055.9185    51.127187    51.127187    51.127187   0.71206647 
 4730000    11656.779    6511.1221    10152.992    2505.2411            0   -1573.4976   -2527.7536    3514.5398   -2560.2838   -270.39217    17595.857    497.71953   -872.15353    51.216019    51.216019    51.216019   0.70836775 
 4740000    11681.395    6356.6925    10226.364    2436.8121            0   -1566.2982   -2525.4286    3519.3823    -2560.252   -270.83784     17453.57    496.37478    761.02991     51.18791     51.18791     51.18791   0.70953533 
 4750000    11706.152    6506.5598    10105.507    2517.9138            0   -1542.1844   -2500.5176    3518.6161   -2560.2829   -271.08854    17587.796    501.90648   -769.24074    51.172126    51.172126    51.172126    0.7101921 
 4760000    11730.819    6503.2513    10175.924     2520.765            0   -1495.5307   -2457.5708    3522.2337   -2560.1935   -268.48236     17704.41    494.66658    190.36186    51.337171    51.337171    51.337171   0.70336449 
 4770000    11755.734    6275.1087    10243.977    2441.0081            0   -1599.1182   -2560.7229    3521.8662   -2560.2615   -271.56407    17360.976    500.86853    224.51541     51.14224     51.14224     51.14224   0.71143787 
 4780000    11780.053    6544.0122    10315.542    2496.1433            0    -1560.963    -2523.933    3523.2937   -2560.3237   -270.31858    17794.735    496.03968   -567.07273    51.220665    51.220665    51.220665   0.70817497 
 4790000    11804.612    6577.5576    10166.628    2413.4516            0   -1571.6933    -2543.967    3532.5669   -2560.2932   -269.34132    17585.944    502.51555   -1323.5773    51.282539    51.282539    51.282539   0.70561476 
 4800000    11829.069    6450.2765    9760.3525    2491.1336            0    -1574.322   -2501.2833     3487.237   -2560.2758    -268.4711    17127.441    509.29896   -38.641303    51.337888    51.337888    51.337888   0.70333498 
 4810000    11853.246    6496.3915    10013.694    2464.0323            0   -1509.6831   -2452.8823     3503.481   -2560.2819   -267.26106    17464.435    500.55168    142.32037     51.41525     51.41525     51.41525   0.70016495 
 4820000    11877.787    6406.0762    10082.355    2522.3657            0    -1523.541   -2484.2716    3521.0142   -2560.2836   -270.59963    17487.256     499.6758   -526.02498    51.202926    51.202926    51.202926   0.70891126 
 4830000    11902.177    6433.3334    10162.789    2442.2342            0    -1665.316   -2565.7216    3460.7349   -2560.3293   -271.24219    17373.041    499.13779    841.50243    51.162462    51.162462    51.162462   0.71059461 
 4840000    11926.593    6485.7452    10198.764    2455.6728            0   -1561.6845    -2532.967    3531.4731   -2560.1906   -273.41966    17578.497    497.12964    630.72509    51.026283    51.026283    51.026283   0.71629911 
 4850000    11950.904    6345.8671    10096.817    2395.5945            0   -1490.5881   -2468.1651    3537.8903   -2560.3133   -271.02665    17347.691     502.2002    1286.2718    51.176021    51.176021    51.176021   0.71002997 
 4860000    11975.456    6438.6106    10075.659    2429.5408            0   -1641.7151   -2596.1551    3514.6728   -2560.2328   -273.68972    17302.095    500.23945    556.91825    51.009495    51.009495    51.009495   0.71700661 
 4870000     12000.01    6391.3941     10187.52    2463.8765            0    -1572.501   -2555.0079    3542.7635   -2560.2565   -272.28749     17470.29    497.78305    120.44484    51.096908    51.096908    51.096908   0.71333308 
 4880000    12024.572    6536.3825    9986.9666    2445.8904            0   -1560.9502    -2499.974     3499.276   -2560.2523   -270.50995    17408.289    496.91632    223.66853    51.208584    51.208584    51.208584   0.70867631 
 4890000    12049.092    6520.5682     10052.19    2438.6675            0   -1625.1175   -2596.3524    3531.5486   -2560.3137   -271.57379    17386.309    501.04157   -392.58121     51.14163     51.14163     51.14163   0.71146335 
 4900000    12073.749    6599.1029    10234.281    2462.2622            0   -1700.1102   -2667.1533    3527.3769   -2560.3338   -273.95997    17595.536     495.5533   -1560.3633    50.992716    50.992716    50.992716   0.71771461 
 4910000    12098.362    6410.3344    10170.307    2471.3847            0   -1606.1701   -2538.8816    3492.9242   -2560.2127   -270.13396    17445.856    504.62837    300.84189    51.232332    51.232332    51.232332    0.7076913 
 4920000    12122.429    6453.5134    10122.083    2529.5821            0   -1573.1007   -2504.4308    3491.6225   -2560.2924   -269.47432    17532.078    499.24735   -405.58076    51.274101    51.274101    51.274101   0.70596321 
 4930000     12147.08    6555.1703    10060.472    2535.2076            0   -1589.7903   -2549.8351    3520.2958    -2560.251   -273.00071    17561.059    492.69144   -156.95587    51.052372    51.052372    51.052372   0.71520156 
 4940000    12171.769    6481.4251    10186.821    2414.1236            0   -1569.0527   -2552.8073      3544.07   -2560.3155   -270.07264    17513.317    501.76369    545.85741    51.236208    51.236208    51.236208   0.70753068 
 4950000    12196.118    6387.9753    10069.698    2449.8208            0    -1644.016   -2577.9217    3494.1649   -2560.2592   -274.20913    17263.478    500.90142    127.01493    50.977266    50.977266    50.977266   0.71836736 
 4960000    12220.538    6366.9274    10010.682    2475.7522            0   -1524.2686   -2454.2834    3490.3069   -2560.2921   -266.44028    17329.093    506.21558   -349.74634    51.467992    51.467991    51.467992   0.69801469 
 4970000    12245.094    6355.1006     10113.26    2420.8601            0   -1540.5771   -2468.7883    3488.5271    -2560.316   -269.32083    17348.644    504.02539    450.79762     51.28384     51.28384     51.28384   0.70556108 
 4980000    12269.466    6449.5437    10098.471    2480.4558            0   -1572.4976   -2518.4813    3506.2794   -2560.2957   -269.12939    17455.973     494.9733    981.16316    51.295997    51.295997    51.295997   0.70505956 
 4990000    12294.173    6394.7919    10129.414    2483.3562            0   -1580.5625    -2544.227    3524.0256   -2560.3611   -270.03772        17427    499.34286     165.2649    51.238417    51.238417    51.238417   0.70743919 
 5000000    12318.705    6383.4557    10155.385    2481.4221            0   -1555.5616   -2466.8807    3471.5756   -2560.2565   -269.85427    17464.702    500.65057    478.60164    51.250025    51.250025    51.250025   0.70695858 
Loop time of 12318.7 on 48 procs for 5000000 steps with 12320 atoms

Performance: 35.069 ns/day, 0.684 hours/ns, 405.887 timesteps/s
99.5% CPU use with 48 MPI tasks x 1 OpenMP threads

MPI task timing breakdown:
Section |  min time  |  avg time  |  max time  |%varavg| %total
---------------------------------------------------------------
Pair    | 6011       | 6294.5     | 6486       | 141.8 | 51.10
Bond    | 558.89     | 578.57     | 600.65     |  37.3 |  4.70
Kspace  | 2200.4     | 2411.2     | 2704.2     | 235.5 | 19.57
Neigh   | 886.46     | 887.15     | 887.88     |   1.1 |  7.20
Comm    | 1828.2     | 1864.1     | 1894.7     |  34.8 | 15.13
Output  | 2.9251     | 2.9262     | 2.9442     |   0.2 |  0.02
Modify  | 228.66     | 259.56     | 276.86     |  84.6 |  2.11
Other   |            | 20.63      |            |       |  0.17

Nlocal:    256.667 ave 288 max 198 min
Histogram: 1 1 1 0 5 6 14 9 7 4
Nghost:    4869.02 ave 4937 max 4754 min
Histogram: 1 0 0 4 11 7 8 6 5 6
Neighs:    85149.6 ave 99167 max 61082 min
Histogram: 1 1 0 2 5 11 11 8 4 5

Total # of neighbors = 4087180
Ave neighs/atom = 331.752
Ave special neighs/atom = 11.8701
Neighbor list builds = 208527
Dangerous builds = 125584

Total wall time: 3:25:18
