ITEM: TIMESTEP
0
ITEM: NUMBER OF ATOMS
170
ITEM: BOX BOUNDS pp pp pp
-0.000999451 26.184
0.0175009 26.2025
-3.265 22.92
ITEM: ATOMS id type xu yu zu
 1 1 12.997 2.436 10.473
 2 2 12.761 2.908 11.257
 3 3 13.2 4.231 11.068
 4 1 12.742 4.63 10.163
 5 1 14.284 4.23 10.952
 6 3 12.809 5.069 12.281
 7 1 11.733 4.972 12.427
 8 1 13.303 4.695 13.178
 9 3 13.119 6.561 12.08
 10 1 12.756 6.894 11.107
 11 1 12.59 7.129 12.845
 12 3 14.631 6.869 12.21
 13 1 15.191 6.309 11.462
 14 1 14.975 6.555 13.196
 15 3 14.95 8.33 12.03
 16 2 14.09 9.14 11.76
 17 1 15.982 8.661 12.15
 18 1 6.953 4.813 12.138
 19 2 6.352 4.212 12.549
 20 3 6.521 2.98 11.909
 21 1 7.521 2.597 12.116
 22 1 6.401 3.099 10.832
 23 3 5.468 1.991 12.422
 24 1 5.509 1.961 13.511
 25 1 4.48 2.343 12.126
 26 3 5.721 0.59 11.859
 27 1 5.71 0.629 10.77
 28 1 6.696 0.235 12.195
 29 3 4.639 25.795 12.341
 30 1 3.662 26.131 11.994
 31 1 4.63 25.756 13.431
 32 3 4.88 24.415 11.81
 33 2 4.1 23.515 12.08
 34 1 5.743 24.204 11.178
 35 1 3.932 5.227 7.125
 36 2 4.717 4.981 6.662
 37 3 5.63 4.52 7.622
 38 1 5.178 3.714 8.2
 39 1 5.885 5.345 8.288
 40 3 6.89 4.01 6.909
 41 1 6.584 3.25 6.19
 42 1 7.365 4.821 6.356
 43 3 7.89 3.368 7.88
 44 1 7.38 2.645 8.517
 45 1 8.635 2.831 7.292
 46 3 8.619 4.412 8.74
 47 1 7.907 4.928 9.385
 48 1 9.111 5.146 8.102
 49 3 9.66 3.75 9.59
 50 2 9.67 3.92 10.8
 51 1 10.433 3.137 9.128
 52 1 4.917 25.521 6.154
 53 2 5.07 26.073 5.402
 54 3 6.451 0.089 5.321
 55 1 6.951 25.313 5.202
 56 1 6.802 0.56 6.24
 57 3 6.769 0.981 4.119
 58 1 6.456 0.47 3.208
 59 1 6.192 1.901 4.208
 60 3 8.272 1.299 4.051
 61 1 8.603 1.761 4.981
 62 1 8.817 0.362 3.942
 63 3 8.621 2.199 2.859
 64 1 8.167 1.816 1.945
 65 1 9.701 2.18 2.713
 66 3 8.17 3.61 3.08
 67 2 8.98 4.52 3.12
 68 1 7.111 3.84 3.2
 69 1 9.788 15.287 14.368
 70 2 10.149 16.038 13.921
 71 3 9.578 17.17 14.531
 72 1 9.817 17.17 15.595
 73 1 8.496 17.131 14.403
 74 3 10.132 18.43 13.869
 75 1 11.215 18.459 13.987
 76 1 9.933 18.361 12.799
 77 3 9.479 19.721 14.409
 78 1 9.667 20.537 13.711
 79 1 8.398 19.592 14.469
 80 3 10.009 20.12 15.801
 81 1 9.872 19.303 16.509
 82 1 9.421 20.964 16.163
 83 3 11.45 20.53 15.74
 84 2 12.3 19.9 16.35
 85 1 11.74 21.4 15.15
 86 1 3.122 5.551 16.571
 87 2 2.392 5.769 16.012
 88 3 2.632 7.071 15.55
 89 1 3.518 7.07 14.916
 90 1 2.806 7.744 16.39
 91 3 1.44 7.57 14.718
 92 1 1.775 8.417 14.119
 93 1 1.127 6.788 14.026
 94 3 0.25 8.032 15.571
 95 1 0.581 8.771 16.301
 96 1 25.726 8.532 14.91
 97 3 25.726 6.878 16.29
 98 1 0.179 6.477 17.077
 99 1 25.5 6.087 15.575
 100 3 24.455 7.36 16.93
 101 2 23.375 6.91 16.59
 102 1 24.495 8.12 17.71
 103 1 0.524 0.286 10.934
 104 2 0.231 1.147 11.189
 105 3 1.372 1.819 11.67
 106 1 2.098 1.909 10.863
 107 1 1.821 1.251 12.484
 108 3 0.981 3.222 12.159
 109 1 1.884 3.78 12.406
 110 1 0.497 3.742 11.333
 111 3 0.028 3.201 13.36
 112 1 25.814 4.207 13.487
 113 1 25.369 2.541 13.163
 114 3 0.722 2.79 14.66
 115 1 1.572 3.446 14.846
 116 1 1.094 1.767 14.591
 117 3 25.955 2.85 15.81
 118 2 26.155 3.61 16.74
 119 1 25.074 2.209 15.82
 120 1 17.87 10.626 12.463
 121 2 17.86 11.418 12.979
 122 3 16.639 12.049 12.689
 123 1 15.816 11.393 12.974
 124 1 16.581 12.266 11.622
 125 3 16.552 13.361 13.482
 126 1 16.628 13.126 14.543
 127 1 17.384 14.008 13.205
 128 3 15.219 14.069 13.218
 129 1 15.142 14.295 12.155
 130 1 14.395 13.412 13.495
 131 3 15.132 15.381 14.021
 132 1 15.932 16.055 13.717
 133 1 15.229 15.163 15.084
 134 3 13.81 16.05 13.78
 135 2 13.56 16.55 12.7
 136 1 13.066 16.08 14.575
 137 1 11.181 8.113 5.721
 138 2 11.629 7.312 5.949
 139 3 10.768 6.27 5.579
 140 1 10.584 6.309 4.505
 141 1 9.811 6.378 6.089
 142 3 11.379 4.909 5.961
 143 1 11.596 4.93 7.03
 144 1 10.643 4.123 5.793
 145 3 12.672 4.6 5.201
 146 1 13.308 5.484 5.151
 147 1 13.22 3.834 5.75
 148 3 12.398 4.06 3.779
 149 1 11.752 4.737 3.221
 150 1 11.897 3.094 3.849
 151 3 13.68 3.92 3.03
 152 2 14.11 2.81 2.72
 153 1 14.251 4.802 2.739
 154 1 24.223 4.649 7.925
 155 2 25.103 4.63 8.269
 156 3 25.564 5.951 8.25
 157 1 24.887 6.579 8.83
 158 1 25.605 6.306 7.22
 159 3 0.781 6.009 8.861
 160 1 0.751 5.538 9.843
 161 1 1.47 5.448 8.229
 162 3 1.269 7.462 9
 163 1 1.241 7.932 8.017
 164 1 0.593 8.009 9.657
 165 3 2.702 7.541 9.549
 166 1 3.024 8.582 9.55
 167 1 3.377 6.981 8.902
 168 3 2.78 7.03 10.959
 169 2 3.53 6.1 11.24
 170 1 2.185 7.494 11.746
ITEM: TIMESTEP
1
ITEM: NUMBER OF ATOMS
170
ITEM: BOX BOUNDS pp pp pp
-0.0545006 26.0585
3.9425 30.0555
0.110499 26.2235
ITEM: ATOMS id type xu yu zu
 1 1 3.45 10.33 25.479
 2 2 3.65 10.367 0.288
 3 3 4.962 9.842 0.434
 4 1 4.843 8.882 26.046
 5 1 5.16 9.777 1.504
 6 3 5.878 10.834 26.046
 7 1 6.695 10.388 25.479
 8 1 5.315 11.499 25.391
 9 3 6.557 11.666 0.992
 10 1 5.75 12.317 1.33
 11 1 6.68 11.134 1.935
 12 3 7.98 12.239 0.718
 13 1 8.224 12.824 1.604
 14 1 7.813 12.977 26.046
 15 3 9.062 11.187 0.486
 16 2 9.223 10.38 1.391
 17 1 9.06 10.747 25.602
 18 1 15.186 22.323 10.913
 19 2 14.371 21.866 11.05
 20 3 14.579 21.243 12.292
 21 1 15.438 20.58 12.182
 22 1 13.641 20.732 12.507
 23 3 14.85 22.262 13.35
 24 1 15.74 22.89 13.318
 25 1 14.001 22.912 13.14
 26 3 14.877 21.61 14.81
 27 1 14.88 22.511 15.423
 28 1 14.003 21.034 15.115
 29 3 16.158 20.79 15.15
 30 1 17.013 21.444 14.984
 31 1 16.263 19.908 14.518
 32 3 16.254 20.486 16.688
 33 2 17.38 20.418 17.053
 34 1 15.489 20.386 17.458
 35 1 10.606 19.234 14.196
 36 2 10.717 18.322 13.977
 37 3 9.966 18.133 12.885
 38 1 10.334 17.303 12.283
 39 1 10.127 19.068 12.347
 40 3 8.496 18.044 13.078
 41 1 7.98 18.863 13.579
 42 1 8.119 17.964 12.059
 43 3 8.213 16.676 13.657
 44 1 7.218 16.307 13.408
 45 1 8.95 15.903 13.439
 46 3 8.168 16.706 15.17
 47 1 7.395 17.371 15.556
 48 1 9.174 16.938 15.519
 49 3 7.865 15.352 15.849
 50 2 6.883 14.701 15.407
 51 1 8.526 15.128 16.687
 52 1 18.854 23.711 21.644
 53 2 18.149 24.088 22.148
 54 3 16.935 24.209 21.457
 55 1 17.096 24.314 20.385
 56 1 16.398 25.116 21.734
 57 3 16.073 23.03 21.777
 58 1 15.895 22.966 22.851
 59 1 15.07 23.131 21.363
 60 3 16.606 21.699 21.219
 61 1 16.85 21.765 20.159
 62 1 17.547 21.508 21.734
 63 3 15.827 20.41 21.47
 64 1 14.747 20.312 21.352
 65 1 15.876 20.072 22.505
 66 3 16.528 19.157 20.789
 67 2 16.049 18.68 19.793
 68 1 17.527 18.981 21.187
 69 1 11.92 22.4 3.986
 70 2 12.358 21.891 3.321
 71 3 12.828 20.7 4.012
 72 1 12.861 19.821 3.368
 73 1 12.265 20.4 4.897
 74 3 14.305 20.741 4.638
 75 1 14.922 20.684 3.741
 76 1 14.397 21.716 5.115
 77 3 14.705 19.727 5.693
 78 1 14.179 20.021 6.601
 79 1 14.146 18.813 5.491
 80 3 16.202 19.424 5.994
 81 1 16.532 18.793 5.168
 82 1 16.221 18.972 6.986
 83 3 17.149 20.638 6.106
 84 2 18.268 20.363 6.549
 85 1 16.651 21.536 6.472
 86 1 22.054 13.383 22.394
 87 2 22.332 14.277 22.268
 88 3 23.525 14.119 21.596
 89 1 23.943 15.095 21.348
 90 1 23.422 13.665 20.61
 91 3 24.511 13.246 22.372
 92 1 25.369 13.309 21.703
 93 1 24.741 13.873 23.233
 94 3 23.944 11.84 22.635
 95 1 23.057 11.922 23.263
 96 1 23.531 11.473 21.695
 97 3 24.97 10.799 23.059
 98 1 25.685 10.631 22.254
 99 1 24.365 9.894 23.004
 100 3 25.744 10.977 24.35
 101 2 25.338 11.647 25.321
 102 1 0.644 10.65 24.116
 103 1 10.29 16.287 6.286
 104 2 10.834 15.89 6.949
 105 3 11.819 15.104 6.317
 106 1 12.408 14.651 7.115
 107 1 12.511 15.643 5.67
 108 3 11.159 14.047 5.432
 109 1 10.65 13.403 6.149
 110 1 10.514 14.521 4.693
 111 3 12.261 13.062 4.948
 112 1 13.165 13.626 4.72
 113 1 12.44 12.531 5.883
 114 3 11.884 12.238 3.654
 115 1 10.817 12.264 3.433
 116 1 12.223 11.234 3.909
 117 3 12.654 12.705 2.458
 118 2 12.954 13.87 2.277
 119 1 13.216 11.885 2.01
 120 1 16.151 15.658 20.118
 121 2 16.003 14.845 19.658
 122 3 16.542 14.917 18.299
 123 1 16.574 13.971 17.759
 124 1 17.622 15.063 18.276
 125 3 15.529 15.823 17.495
 126 1 14.616 15.244 17.632
 127 1 15.427 16.802 17.963
 128 3 15.883 16.122 16.083
 129 1 16.665 16.881 16.094
 130 1 16.309 15.18 15.739
 131 3 14.629 16.471 15.373
 132 1 14.071 17.288 15.83
 133 1 14.074 15.541 15.489
 134 3 14.728 16.764 13.927
 135 2 14.89 17.911 13.47
 136 1 14.51 15.928 13.263
 137 1 22.636 16.51 21.25
 138 2 23.065 17.077 20.628
 139 3 22.243 18.254 20.487
 140 1 21.997 18.555 21.505
 141 1 21.301 17.971 20.017
 142 3 22.973 19.408 19.765
 143 1 22.782 19.285 18.699
 144 1 22.425 20.31 20.036
 145 3 24.526 19.426 19.909
 146 1 24.944 18.44 20.109
 147 1 25.032 19.69 18.981
 148 3 24.921 20.51 20.867
 149 1 24.436 20.201 21.793
 150 1 24.505 21.506 20.719
 151 3 0.26 20.577 21.114
 152 2 1.107 21.034 20.26
 153 1 0.526 20.343 22.145
 154 1 18.255 16.645 21.525
 155 2 17.722 16.163 22.138
 156 3 18.436 15.907 23.339
 157 1 17.791 15.792 24.21
 158 1 19.119 16.748 23.462
 159 3 19.166 14.652 23.05
 160 1 19.844 14.717 22.199
 161 1 19.891 14.554 23.859
 162 3 18.211 13.397 22.8
 163 1 17.523 13.306 23.641
 164 1 17.468 13.607 22.031
 165 3 18.96 12.067 22.625
 166 1 18.391 11.144 22.734
 167 1 19.769 11.941 23.344
 168 3 19.772 11.783 21.287
 169 2 20.649 12.54 21.021
 170 1 20.124 10.774 21.078
ITEM: TIMESTEP
2
ITEM: NUMBER OF ATOMS
170
ITEM: BOX BOUNDS pp pp pp
-0.132001 25.596
-0.188001 25.54
0.1005 25.8285
ITEM: ATOMS id type xu yu zu
 1 1 20.259 0.877 4.066
 2 2 19.975 1.667 3.631
 3 3 20.527 2.839 4.137
 4 1 21.027 3.389 3.339
 5 1 21.231 2.436 4.865
 6 3 19.37 3.699 4.757
 7 1 18.812 4.401 4.138
 8 1 18.542 3.098 5.132
 9 3 19.797 4.436 6.042
 10 1 20.391 3.86 6.751
 11 1 20.526 5.151 5.66
 12 3 18.799 5.314 6.777
 13 1 18.486 5.896 5.91
 14 1 19.23 5.994 7.512
 15 3 17.563 4.664 7.422
 16 2 17.545 3.426 7.584
 17 1 16.976 5.438 7.917
 18 1 3.041 9.04 3.039
 19 2 2.542 8.363 3.471
 20 3 3.242 7.258 3.824
 21 1 3.065 6.705 2.902
 22 1 2.73 6.624 4.549
 23 3 4.757 7.378 4.21
 24 1 5.256 6.411 4.144
 25 1 5.252 7.957 3.43
 26 3 4.993 7.953 5.582
 27 1 4.547 8.944 5.509
 28 1 4.348 7.596 6.385
 29 3 6.429 7.942 6.147
 30 1 6.545 8.558 7.039
 31 1 7.298 8.163 5.528
 32 3 6.78 6.621 6.826
 33 2 6.134 5.606 6.543
 34 1 7.605 6.7 7.535
 35 1 10.291 8.072 22.566
 36 2 9.537 8.624 22.424
 37 3 9.734 9.883 23.01
 38 1 10.393 10.425 22.331
 39 1 10.21 9.687 23.97
 40 3 8.418 10.841 23.057
 41 1 7.7 10.36 23.722
 42 1 8.781 11.816 23.38
 43 3 7.807 11.058 21.717
 44 1 8.693 11.216 21.101
 45 1 7.311 10.154 21.363
 46 3 6.867 12.248 21.43
 47 1 5.822 12.103 21.701
 48 1 6.77 12.296 20.346
 49 3 7.243 13.679 21.909
 50 2 7.079 14.69 21.152
 51 1 7.734 13.861 22.865
 52 1 11.146 12.386 3.31
 53 2 10.551 12.802 2.705
 54 3 10.914 14.205 2.797
 55 1 10.075 14.812 3.137
 56 1 11.329 14.497 1.832
 57 3 12.047 14.295 3.921
 58 1 12.164 15.34 4.207
 59 1 11.772 13.887 4.894
 60 3 13.273 13.382 3.571
 61 1 13.151 12.433 4.092
 62 1 13.369 13.151 2.51
 63 3 14.619 14.041 4.183
 64 1 14.308 14.429 5.153
 65 1 15.034 14.957 3.762
 66 3 15.732 13.057 4.154
 67 2 15.653 12.021 3.441
 68 1 16.563 13.207 4.842
 69 1 0.492 10.316 13.762
 70 2 0.018 9.989 14.512
 71 3 25.166 8.717 14.351
 72 1 25.192 8.537 13.277
 73 1 24.109 8.985 14.351
 74 3 25.139 7.629 15.446
 75 1 25.446 8.106 16.378
 76 1 24.116 7.417 15.756
 77 3 0.256 6.384 14.996
 78 1 25.343 5.915 14.25
 79 1 1.154 6.682 14.453
 80 3 0.61 5.59 16.19
 81 1 1.163 6.096 16.981
 82 1 1.249 4.839 15.725
 83 3 25.186 4.669 16.656
 84 2 24.805 4.564 17.803
 85 1 24.808 4.093 15.812
 86 1 22.768 20.893 18.391
 87 2 22.151 21.54 18.084
 88 3 22.761 22.599 17.203
 89 1 22.019 22.796 16.429
 90 1 23.589 22.114 16.686
 91 3 22.994 23.928 17.957
 92 1 23.712 23.765 18.76
 93 1 23.512 24.579 17.253
 94 3 21.715 24.586 18.42
 95 1 21.012 24.912 17.654
 96 1 21.154 23.82 18.955
 97 3 22.032 0.028 19.272
 98 1 22.715 25.324 20.004
 99 1 21.241 0.531 19.828
 100 3 22.533 1.209 18.523
 101 2 22.975 1.125 17.418
 102 1 22.749 2.057 19.173
 103 1 13.695 6.582 10.368
 104 2 12.831 6.476 9.999
 105 3 13.024 5.537 8.922
 106 1 12.204 5.479 8.207
 107 1 13.108 4.58 9.437
 108 3 14.377 5.679 8.228
 109 1 15.169 5.591 8.971
 110 1 14.394 4.923 7.443
 111 3 14.574 7.059 7.539
 112 1 15.458 7.122 6.905
 113 1 13.661 7.229 6.967
 114 3 14.759 8.379 8.365
 115 1 15.295 8.136 9.282
 116 1 13.828 8.856 8.672
 117 3 15.348 9.543 7.628
 118 2 15.835 9.552 6.512
 119 1 14.596 10.328 7.718
 120 1 24.609 4.08 20.92
 121 2 23.753 4.085 21.319
 122 3 22.884 4.903 20.531
 123 1 22.568 4.588 19.536
 124 1 23.2 5.898 20.218
 125 3 21.592 5.27 21.373
 126 1 21.715 5.798 22.319
 127 1 20.899 5.881 20.794
 128 3 20.803 4.076 21.78
 129 1 19.954 4.39 22.388
 130 1 20.535 3.529 20.876
 131 3 21.545 2.988 22.774
 132 1 20.948 2.743 23.652
 133 1 22.442 3.386 23.249
 134 3 21.835 1.697 22.136
 135 2 21.458 0.609 22.591
 136 1 22.615 1.763 21.377
 137 1 16.323 3.929 4.168
 138 2 15.926 4.732 4.471
 139 3 15.015 5.057 3.488
 140 1 14.259 4.29 3.659
 141 1 15.354 4.907 2.463
 142 3 14.369 6.476 3.526
 143 1 13.523 6.465 2.84
 144 1 14.031 6.637 4.55
 145 3 15.398 7.601 3.286
 146 1 16.331 7.362 3.796
 147 1 15.657 7.558 2.228
 148 3 14.855 8.995 3.695
 149 1 15.589 9.801 3.732
 150 1 14.422 8.796 4.675
 151 3 13.763 9.706 2.711
 152 2 12.831 10.315 3.235
 153 1 14.021 9.69 1.652
 154 1 15.663 7.322 25.081
 155 2 15.613 8.103 24.552
 156 3 15.97 9.286 25.132
 157 1 15.412 9.455 0.325
 158 1 15.74 10.094 24.437
 159 3 17.513 9.348 25.311
 160 1 18.006 9.383 24.34
 161 1 17.651 10.365 25.679
 162 3 18.11 8.317 0.593
 163 1 17.69 8.38 1.597
 164 1 17.644 7.393 0.25
 165 3 19.641 8.323 0.692
 166 1 19.848 9.191 1.318
 167 1 20.085 8.442 25.431
 168 3 20.262 7.047 1.329
 169 2 19.534 6.26 1.926
 170 1 21.17 6.647 0.878
ITEM: TIMESTEP
3
ITEM: NUMBER OF ATOMS
170
ITEM: BOX BOUNDS pp pp pp
2.8305 28.9345
4.2245 30.3285
0.168 26.272
ITEM: ATOMS id type xu yu zu
 1 1 19.463 13.156 16.632
 2 2 19.062 12.641 17.315
 3 3 19.783 11.402 17.459
 4 1 20.258 11.048 16.544
 5 1 19.015 10.721 17.827
 6 3 20.742 11.754 18.581
 7 1 20.378 12.211 19.501
 8 1 21.095 10.824 19.026
 9 3 22.101 12.185 18.148
 10 1 22.374 11.601 17.268
 11 1 22.084 13.17 17.683
 12 3 23.204 12.277 19.23
 13 1 24.127 12.545 18.714
 14 1 23.333 11.352 19.793
 15 3 23.066 13.432 20.312
 16 2 22.412 14.452 20.133
 17 1 23.175 13.146 21.358
 18 1 24.851 20.638 22.88
 19 2 24.027 21.026 23.134
 20 3 23.017 20.2 22.54
 21 1 23.373 19.357 21.948
 22 1 22.8 20.904 21.737
 23 3 21.755 19.979 23.339
 24 1 21.202 19.145 22.907
 25 1 22.119 19.746 24.34
 26 3 20.901 21.277 23.367
 27 1 21.428 22.187 23.654
 28 1 20.77 21.441 22.297
 29 3 19.551 21.163 23.955
 30 1 19.522 20.963 25.026
 31 1 18.905 20.35 23.623
 32 3 18.737 22.377 23.642
 33 2 17.672 22.09 23.236
 34 1 18.915 23.189 24.347
 35 1 21.251 16.737 9.664
 36 2 21.518 16.21 8.926
 37 3 22.334 15.212 9.329
 38 1 21.746 14.309 9.494
 39 1 22.822 15.478 10.266
 40 3 23.403 14.881 8.3
 41 1 23.79 15.859 8.013
 42 1 24.158 14.286 8.815
 43 3 23.048 14.051 7.018
 44 1 22.535 14.764 6.372
 45 1 23.95 13.812 6.456
 46 3 22.292 12.759 7.261
 47 1 21.831 12.363 6.355
 48 1 21.479 12.868 7.979
 49 3 23.011 11.566 7.987
 50 2 24.168 11.633 8.389
 51 1 22.542 10.618 7.726
 52 1 18.782 15.054 15.482
 53 2 19.504 14.494 15.239
 54 3 19.59 14.496 13.88
 55 1 18.563 14.346 13.548
 56 1 20.136 13.615 13.544
 57 3 20.17 15.779 13.42
 58 1 21.088 16 13.964
 59 1 20.553 15.88 12.405
 60 3 19.419 17.13 13.772
 61 1 18.362 17.044 13.519
 62 1 19.529 17.495 14.793
 63 3 19.631 18.353 12.794
 64 1 18.868 19.085 13.061
 65 1 19.372 17.843 11.866
 66 3 20.955 19.132 12.693
 67 2 21.864 18.856 11.884
 68 1 21.061 19.781 13.562
 69 1 9.956 25.284 13.115
 70 2 10.568 24.565 13.08
 71 3 10.048 23.336 13.705
 72 1 9.403 23.582 14.549
 73 1 10.828 22.745 14.185
 74 3 9.401 22.32 12.764
 75 1 10.176 21.735 12.267
 76 1 8.936 21.641 13.479
 77 3 8.184 22.883 12.096
 78 1 7.483 23.287 12.826
 79 1 8.523 23.667 11.419
 80 3 7.591 21.857 11.115
 81 1 6.507 21.963 11.064
 82 1 7.698 20.821 11.437
 83 3 8.084 22.078 9.663
 84 2 7.988 21.139 8.875
 85 1 8.399 23.114 9.533
 86 1 15.394 16.088 19.314
 87 2 15.27 16.631 20.077
 88 3 15.64 15.881 21.123
 89 1 15.377 14.841 20.928
 90 1 15.071 16.282 21.961
 91 3 17.085 15.886 21.6
 92 1 17.376 16.931 21.713
 93 1 17.13 15.421 22.585
 94 3 17.983 15.056 20.648
 95 1 18.324 14.136 21.124
 96 1 17.585 14.516 19.789
 97 3 19.328 15.786 20.356
 98 1 18.987 16.714 19.896
 99 1 19.766 15.27 19.502
 100 3 20.22 16.04 21.609
 101 2 20.24 15.322 22.601
 102 1 21.006 16.693 21.23
 103 1 22.48 14.806 15.278
 104 2 23.248 14.903 15.821
 105 3 24.104 15.96 15.224
 106 1 23.704 16.444 14.333
 107 1 25.041 15.529 14.87
 108 3 24.474 16.957 16.367
 109 1 25.258 16.588 17.028
 110 1 24.941 17.807 15.87
 111 3 23.408 17.364 17.489
 112 1 22.598 17.597 16.798
 113 1 23.103 16.616 18.221
 114 3 23.739 18.699 18.313
 115 1 24.636 18.562 18.916
 116 1 23.094 18.676 19.191
 117 3 23.51 20.001 17.612
 118 2 22.74 20.093 16.694
 119 1 24.205 20.834 17.721
 120 1 15.831 21.211 22.237
 121 2 15.031 20.916 21.83
 122 3 15.52 19.929 20.967
 123 1 14.764 19.88 20.183
 124 1 15.457 18.991 21.519
 125 3 16.879 20.1 20.304
 126 1 16.805 21.146 20.004
 127 1 17.528 19.995 21.173
 128 3 17.295 19.058 19.202
 129 1 17.211 18.109 19.732
 130 1 16.653 19.161 18.328
 131 3 18.646 19.311 18.481
 132 1 18.54 20.245 17.927
 133 1 19.106 18.595 17.799
 134 3 19.944 19.713 19.305
 135 2 20.025 19.491 20.508
 136 1 20.763 19.492 18.622
 137 1 17.441 15.043 17.487
 138 2 17.426 15.595 16.72
 139 3 16.222 15.275 16.073
 140 1 16.13 16.054 15.316
 141 1 15.469 15.412 16.849
 142 3 16.142 13.89 15.573
 143 1 17.172 13.643 15.315
 144 1 15.886 13.125 16.306
 145 3 15.007 13.599 14.605
 146 1 14.029 14.065 14.722
 147 1 15.436 14.108 13.741
 148 3 14.812 11.974 14.317
 149 1 14.116 11.794 13.498
 150 1 14.512 11.668 15.319
 151 3 15.935 11.256 13.676
 152 2 17.056 11.789 13.5
 153 1 15.762 10.199 13.477
 154 1 15.115 14.149 0.389
 155 2 15.323 13.23 0.469
 156 3 15.346 12.665 25.3
 157 1 15.429 13.61 24.765
 158 1 14.358 12.258 25.083
 159 3 16.38 11.519 25.064
 160 1 16.198 10.769 25.834
 161 1 15.982 10.819 24.329
 162 3 17.824 12.058 25.026
 163 1 17.779 12.889 24.321
 164 1 18.124 12.276 26.051
 165 3 18.771 10.93 24.541
 166 1 18.794 10.067 25.206
 167 1 19.748 11.373 24.739
 168 3 18.511 10.486 23.102
 169 2 18.691 9.269 22.799
 170 1 17.77 11.183 22.71
ITEM: TIMESTEP
4
ITEM: NUMBER OF ATOMS
170
ITEM: BOX BOUNDS pp pp pp
0.1045 27.0235
0.076499 26.9955
-0.674001 26.245
ITEM: ATOMS id type xu yu zu
 1 1 17.075 1.961 6.55
 2 2 16.488 2.652 6.815
 3 3 15.696 3.046 5.593
 4 1 15.377 2.048 5.292
 5 1 16.37 3.457 4.842
 6 3 14.612 3.994 6.29
 7 1 14.218 3.494 7.175
 8 1 15.075 4.91 6.656
 9 3 13.394 4.43 5.404
 10 1 13.727 5.09 4.603
 11 1 13.057 3.549 4.858
 12 3 12.316 5.393 6.007
 13 1 11.706 5.088 6.857
 14 1 11.574 5.396 5.209
 15 3 12.842 6.939 6.134
 16 2 12.031 7.879 5.984
 17 1 13.879 6.976 6.469
 18 1 26.149 5.302 8.653
 19 2 26.38 4.562 8.112
 20 3 0.865 4.532 7.94
 21 1 1.249 5.539 7.778
 22 1 1.241 3.994 7.069
 23 3 1.533 4.028 9.178
 24 1 1.436 4.613 10.093
 25 1 1.009 3.123 9.488
 26 3 2.967 3.592 9.018
 27 1 3.095 3.165 8.024
 28 1 3.495 4.537 9.151
 29 3 3.456 2.59 10.1
 30 1 3.311 3.067 11.069
 31 1 4.525 2.693 9.915
 32 3 3.035 1.097 9.805
 33 2 2.341 0.694 8.894
 34 1 3.611 0.37 10.376
 35 1 23.649 14.99 22.436
 36 2 23.602 14.634 23.31
 37 3 23.421 13.262 23.385
 38 1 22.513 13.006 22.839
 39 1 23.143 12.943 24.39
 40 3 24.462 12.387 22.626
 41 1 25.438 12.587 23.068
 42 1 24.335 11.352 22.945
 43 3 24.502 12.554 21.101
 44 1 25.066 11.719 20.686
 45 1 23.521 12.422 20.644
 46 3 25.089 13.838 20.46
 47 1 24.471 14.684 20.76
 48 1 25.032 13.635 19.39
 49 3 26.527 14.162 20.875
 50 2 26.914 15.28 21.026
 51 1 0.214 13.306 20.58
 52 1 8.046 12.902 15.869
 53 2 7.171 13.18 16.093
 54 3 6.671 13.909 14.976
 55 1 5.605 13.869 15.199
 56 1 6.87 13.344 14.066
 57 3 7.147 15.362 14.955
 58 1 7.416 15.72 15.949
 59 1 8.168 15.351 14.574
 60 3 6.298 16.36 14.204
 61 1 5.985 15.83 13.304
 62 1 5.413 16.445 14.835
 63 3 6.857 17.584 13.698
 64 1 7.177 18.254 14.497
 65 1 6.078 18.204 13.254
 66 3 7.928 17.458 12.557
 67 2 8.218 18.407 11.847
 68 1 8.242 16.433 12.361
 69 1 7.366 6.203 12.987
 70 2 7.018 5.985 12.136
 71 3 8.057 5.336 11.478
 72 1 7.972 4.326 11.881
 73 1 8.989 5.789 11.815
 74 3 7.982 5.146 9.94
 75 1 8.834 4.559 9.599
 76 1 7.031 4.685 9.673
 77 3 7.823 6.498 9.277
 78 1 6.99 7.131 9.581
 79 1 8.72 7.102 9.417
 80 3 7.762 6.568 7.786
 81 1 8.496 5.974 7.241
 82 1 7.979 7.605 7.528
 83 3 6.529 6.106 7.047
 84 2 5.685 5.47 7.741
 85 1 6.862 5.783 6.06
 86 1 25.412 0.237 8.774
 87 2 24.84 0.45 9.495
 88 3 25.591 0.905 10.593
 89 1 26.676 0.948 10.497
 90 1 25.264 0.252 11.402
 91 3 25.005 2.325 10.879
 92 1 25.135 2.914 9.971
 93 1 23.951 2.258 11.148
 94 3 25.774 3.205 11.918
 95 1 25.81 2.553 12.791
 96 1 26.743 3.516 11.528
 97 3 25.175 4.652 12.348
 98 1 25.807 5.148 13.085
 99 1 24.227 4.694 12.885
 100 3 25.223 5.573 11.066
 101 2 26.208 6.144 10.727
 102 1 24.682 5.034 10.288
 103 1 18.267 25.896 7.072
 104 2 18.238 26.798 7.353
 105 3 19.19 26.835 8.368
 106 1 19.96 26.095 8.149
 107 1 18.714 26.589 9.317
 108 3 19.842 1.262 8.385
 109 1 18.987 1.932 8.297
 110 1 20.403 1.553 9.273
 111 3 20.812 1.566 7.234
 112 1 21.591 0.803 7.24
 113 1 20.193 1.425 6.349
 114 3 21.223 2.95 7.293
 115 1 20.59 3.523 7.971
 116 1 21.037 3.299 6.277
 117 3 22.569 3.109 8.034
 118 2 23.519 3.089 7.294
 119 1 22.631 2.774 9.069
 120 1 16.716 11.346 3.912
 121 2 16.326 11.436 3.056
 122 3 15.366 10.421 2.919
 123 1 15.032 10.167 3.925
 124 1 15.738 9.549 2.381
 125 3 14.022 10.784 2.119
 126 1 14.176 11.355 1.203
 127 1 13.684 9.749 2.056
 128 3 13.005 11.647 2.853
 129 1 12.787 11.104 3.773
 130 1 13.441 12.582 3.205
 131 3 11.674 11.883 2.097
 132 1 11.322 10.921 1.723
 133 1 11.678 12.593 1.27
 134 3 10.514 12.493 2.853
 135 2 9.42 11.886 2.985
 136 1 10.519 13.577 2.746
 137 1 24.757 2.318 3.457
 138 2 24.947 1.802 2.689
 139 3 25.599 2.732 1.861
 140 1 24.917 3.242 1.181
 141 1 26.408 2.403 1.209
 142 3 26.219 3.657 2.934
 143 1 25.951 4.668 2.625
 144 1 25.8 3.512 3.93
 145 3 0.821 3.389 3.021
 146 1 0.759 2.418 3.513
 147 1 1.275 3.21 2.046
 148 3 1.521 4.549 3.697
 149 1 2.509 4.38 4.126
 150 1 1.04 4.825 4.635
 151 3 1.797 5.684 2.726
 152 2 0.958 6.566 2.635
 153 1 2.387 5.436 1.844
 154 1 7.319 25.194 12.504
 155 2 7.48 25.17 11.573
 156 3 7.593 23.74 11.428
 157 1 7.826 23.665 10.366
 158 1 6.624 23.286 11.631
 159 3 8.728 23.23 12.204
 160 1 9.716 23.608 11.94
 161 1 8.676 23.456 13.269
 162 3 9.04 21.792 11.998
 163 1 8.486 21.29 12.791
 164 1 8.555 21.476 11.075
 165 3 10.518 21.395 12.048
 166 1 10.972 21.949 11.227
 167 1 10.764 20.339 11.937
 168 3 11.054 21.798 13.316
 169 2 11.272 22.906 13.693
 170 1 11.089 20.995 14.053
ITEM: TIMESTEP
5
ITEM: NUMBER OF ATOMS
170
ITEM: BOX BOUNDS pp pp pp
-0.127001 26.81
0.1025 27.0395
-0.897 26.04
ITEM: ATOMS id type xu yu zu
 1 1 25.573 9.993 17.356
 2 2 25.251 10.873 17.481
 3 3 26.253 11.752 17.178
 4 1 25.857 12.265 16.301
 5 1 0.26 11.389 16.774
 6 3 26.464 12.819 18.287
 7 1 25.708 13.594 18.158
 8 1 26.264 12.206 19.166
 9 3 0.901 13.555 18.596
 10 1 1.773 13.019 18.22
 11 1 0.897 14.552 18.156
 12 3 1.089 13.684 20.095
 13 1 2.11 14.064 20.134
 14 1 0.934 12.73 20.599
 15 3 0.084 14.597 20.756
 16 2 26.678 15.746 20.396
 17 1 26.407 14.036 21.46
 18 1 11.641 14.366 11.011
 19 2 12.219 13.63 10.886
 20 3 13.291 13.983 9.978
 21 1 12.905 13.714 8.995
 22 1 14.217 13.511 10.306
 23 3 13.5 15.467 10.019
 24 1 12.536 15.96 9.889
 25 1 13.804 15.759 11.024
 26 3 14.42 15.929 8.923
 27 1 14.695 15.23 8.133
 28 1 14.025 16.759 8.337
 29 3 15.839 16.634 9.3
 30 1 16.556 16.062 9.889
 31 1 15.578 17.509 9.896
 32 3 16.586 17.09 8.08
 33 2 17.297 18.033 8.133
 34 1 16.88 16.255 7.444
 35 1 25.254 17.807 14.483
 36 2 25.037 18.543 15.035
 37 3 23.818 18.366 15.66
 38 1 23.45 17.341 15.705
 39 1 23.153 19.079 15.173
 40 3 23.888 18.893 17.104
 41 1 24.331 19.883 17.218
 42 1 22.91 18.785 17.571
 43 3 24.829 18.039 17.975
 44 1 24.68 16.993 17.706
 45 1 25.837 18.319 17.669
 46 3 24.671 18.263 19.492
 47 1 24.647 19.351 19.552
 48 1 25.581 17.804 19.879
 49 3 23.335 17.772 20.084
 50 2 22.646 16.987 19.576
 51 1 22.969 18.759 20.365
 52 1 9.943 0.347 12.449
 53 2 9.451 26.746 11.848
 54 3 9.432 0.377 10.577
 55 1 10.5 0.432 10.365
 56 1 9.043 1.394 10.638
 57 3 8.738 26.795 9.239
 58 1 7.671 26.604 9.354
 59 1 8.665 0.658 8.502
 60 3 9.302 25.517 8.668
 61 1 8.954 24.732 9.34
 62 1 8.85 25.455 7.678
 63 3 10.817 25.338 8.52
 64 1 11.312 25.35 9.491
 65 1 11.154 26.193 7.934
 66 3 11.229 24.058 7.791
 67 2 12.04 23.259 8.15
 68 1 11.327 24.253 6.723
 69 1 8.298 16.581 2.601
 70 2 7.514 16.407 2.101
 71 3 6.931 15.153 2.332
 72 1 7.652 14.712 3.021
 73 1 7.018 14.595 1.4
 74 3 5.527 15.215 2.766
 75 1 5.113 16.072 2.234
 76 1 4.969 14.279 2.758
 77 3 5.443 15.503 4.206
 78 1 5.913 16.448 4.479
 79 1 4.398 15.699 4.449
 80 3 5.858 14.275 5.226
 81 1 6.015 14.693 6.219
 82 1 6.805 13.841 4.906
 83 3 4.795 13.148 5.227
 84 2 4.841 12.277 6.092
 85 1 4.257 12.904 4.311
 86 1 9.408 15.756 7.037
 87 2 9.789 16.087 6.238
 88 3 9.613 15.09 5.236
 89 1 9.253 15.543 4.313
 90 1 8.698 14.592 5.559
 91 3 10.688 14.047 5.271
 92 1 10.821 13.994 6.351
 93 1 10.257 13.188 4.757
 94 3 11.94 14.416 4.485
 95 1 11.654 15.073 3.663
 96 1 12.448 15.213 5.028
 97 3 12.928 13.337 4.231
 98 1 13.014 12.797 5.174
 99 1 13.931 13.67 3.964
 100 3 12.544 12.131 3.399
 101 2 12.697 12.2 2.151
 102 1 11.641 11.663 3.791
 103 1 24.739 20.578 6.218
 104 2 24.855 20.014 6.967
 105 3 25.444 20.58 8.101
 106 1 25.986 19.814 8.655
 107 1 24.704 20.959 8.806
 108 3 26.489 21.74 7.909
 109 1 26.606 22.244 8.869
 110 1 0.525 21.296 7.703
 111 3 26.157 22.801 6.759
 112 1 26.141 22.293 5.794
 113 1 25.17 23.254 6.849
 114 3 0.364 23.744 6.733
 115 1 1.308 23.314 6.4
 116 1 0.462 24.099 7.759
 117 3 0.005 24.991 6.064
 118 2 0.052 26.141 6.601
 119 1 26.508 24.802 5.082
 120 1 18.004 19.996 7.804
 121 2 18.403 20.683 7.291
 122 3 19.74 20.284 6.848
 123 1 19.843 19.216 7.038
 124 1 20.593 20.828 7.253
 125 3 19.675 20.651 5.353
 126 1 19.496 21.726 5.371
 127 1 20.666 20.375 4.994
 128 3 18.656 19.83 4.441
 129 1 17.63 20.019 4.757
 130 1 18.91 20.209 3.451
 131 3 18.845 18.304 4.475
 132 1 18.636 17.864 5.451
 133 1 19.889 18.007 4.376
 134 3 18.149 17.538 3.334
 135 2 17.531 16.492 3.587
 136 1 17.618 18.144 2.6
 137 1 0.846 10.984 21.966
 138 2 1.667 10.817 22.402
 139 3 1.811 9.434 22.668
 140 1 1.187 8.825 22.013
 141 1 1.675 9.31 23.743
 142 3 3.268 9.036 22.535
 143 1 3.876 9.785 23.043
 144 1 3.448 8.096 23.056
 145 3 3.7 9.122 21.076
 146 1 2.872 8.966 20.383
 147 1 3.852 10.139 20.716
 148 3 4.973 8.308 20.798
 149 1 5.609 8.203 21.677
 150 1 5.646 8.768 20.075
 151 3 4.561 6.875 20.56
 152 2 4.498 6.039 21.435
 153 1 4.885 6.519 19.582
 154 1 5.464 8.192 10.312
 155 2 5.413 9.092 10.027
 156 3 6.475 9.39 9.167
 157 1 7.211 8.608 9.351
 158 1 6.94 10.344 9.415
 159 3 6.086 9.174 7.654
 160 1 5.772 8.136 7.549
 161 1 5.137 9.677 7.464
 162 3 7.155 9.538 6.641
 163 1 6.893 8.977 5.745
 164 1 7.163 10.617 6.485
 165 3 8.6 9.376 6.968
 166 1 8.849 8.372 7.312
 167 1 8.846 9.975 7.844
 168 3 9.525 9.798 5.834
 169 2 10.723 10.027 6.138
 170 1 9.278 9.538 4.804
ITEM: TIMESTEP
6
ITEM: NUMBER OF ATOMS
170
ITEM: BOX BOUNDS pp pp pp
-0.000499725 26.5315
0.0805006 26.6125
0.059 26.591
ITEM: ATOMS id type xu yu zu
 1 1 11.659 2.697 16.012
 2 2 11.92 2.196 15.254
 3 3 13.17 1.621 15.49
 4 1 13.087 0.56 15.258
 5 1 13.319 1.529 16.566
 6 3 14.301 2.405 14.863
 7 1 13.796 2.937 14.056
 8 1 14.711 3.137 15.559
 9 3 15.554 1.654 14.281
 10 1 15.166 1.136 13.404
 11 1 16.268 2.36 13.857
 12 3 16.375 0.797 15.184
 13 1 17.142 0.235 14.651
 14 1 15.776 26.458 15.45
 15 3 16.845 1.474 16.422
 16 2 16.421 0.99 17.451
 17 1 17.232 2.49 16.348
 18 1 24.145 19.877 1.046
 19 2 23.228 19.785 1.256
 20 3 22.78 20.989 1.891
 21 1 22.469 21.66 1.09
 22 1 23.502 21.632 2.394
 23 3 21.596 20.819 2.834
 24 1 21.425 21.758 3.361
 25 1 20.807 20.809 2.083
 26 3 21.548 19.728 3.872
 27 1 21.872 18.758 3.495
 28 1 22.291 20.009 4.619
 29 3 20.104 19.219 4.443
 30 1 19.596 18.659 3.658
 31 1 19.527 20.051 4.846
 32 3 20.369 18.381 5.777
 33 2 21.436 18.318 6.337
 34 1 19.439 18.017 6.213
 35 1 2.502 19.594 10.157
 36 2 1.654 19.539 10.57
 37 3 0.872 18.619 9.932
 38 1 1.671 18.112 9.391
 39 1 0.175 19.063 9.222
 40 3 0.218 17.835 10.998
 41 1 0.01 18.479 11.853
 42 1 25.775 17.481 10.662
 43 3 1.151 16.608 11.485
 44 1 1.158 15.872 10.681
 45 1 2.119 17.104 11.552
 46 3 0.512 15.821 12.633
 47 1 0.378 16.42 13.534
 48 1 1.31 15.108 12.842
 49 3 25.722 15.082 12.345
 50 2 25.467 14.843 11.154
 51 1 25.223 14.557 13.16
 52 1 1.23 10.505 10.078
 53 2 1.698 9.685 10.107
 54 3 0.751 8.671 10.358
 55 1 1.33 7.813 10.018
 56 1 26.431 8.861 9.704
 57 3 0.515 8.667 11.872
 58 1 0.334 9.681 12.23
 59 1 26.175 8.016 11.809
 60 3 1.665 8.135 12.761
 61 1 1.987 7.185 12.334
 62 1 2.56 8.757 12.742
 63 3 1.401 7.718 14.263
 64 1 2.412 7.646 14.665
 65 1 0.973 6.725 14.121
 66 3 0.452 8.482 15.097
 67 2 26.401 8.045 16.109
 68 1 0.718 9.516 14.879
 69 1 24.282 15.016 18.701
 70 2 24.775 14.409 18.17
 71 3 23.89 13.628 17.32
 72 1 24.442 12.853 16.787
 73 1 23.493 14.339 16.595
 74 3 22.694 12.941 17.944
 75 1 21.94 13.685 18.2
 76 1 22.359 12.29 17.136
 77 3 22.898 12.105 19.22
 78 1 23.507 12.688 19.912
 79 1 21.96 12.05 19.773
 80 3 23.757 10.862 19.057
 81 1 24.134 10.604 20.047
 82 1 24.478 11.174 18.302
 83 3 22.841 9.768 18.597
 84 2 22.217 9.202 19.502
 85 1 22.461 9.626 17.586
 86 1 23.294 22.714 12.112
 87 2 23.443 23.202 11.316
 88 3 24.508 22.575 10.559
 89 1 24.394 22.7 9.482
 90 1 24.392 21.504 10.724
 91 3 25.936 22.718 11.156
 92 1 25.689 22.29 12.128
 93 1 26.524 21.956 10.645
 94 3 0.007 24.096 11.296
 95 1 25.9 24.921 10.981
 96 1 0.223 24.365 12.33
 97 3 1.213 24.245 10.365
 98 1 2.06 23.592 10.572
 99 1 1.512 25.289 10.464
 100 3 0.871 24.377 8.853
 101 2 1.457 23.485 8.122
 102 1 26.368 24.455 8.517
 103 1 8.435 16.165 6.481